 Entering Gaussian System, Link 0=g16
 Input=b3b3t_TS_2_m2.gjf
 Output=b3b3t_TS_2_m2.log
 Initial command:
 /shared/ucl/apps/gaussian/g16-a03/pgi-2016.5/g16/l1.exe "/tmpdir/job/257381.undefined/ucanssc/gaussian.941063a7/Gau-203233.inp" -scrdir="/tmpdir/job/257381.undefined/ucanssc/gaussian.941063a7/"
 Entering Link 1 = /shared/ucl/apps/gaussian/g16-a03/pgi-2016.5/g16/l1.exe PID=    203234.
  
 Copyright (c) 1988,1990,1992,1993,1995,1998,2003,2009,2016,
            Gaussian, Inc.  All Rights Reserved.
  
 This is part of the Gaussian(R) 16 program.  It is based on
 the Gaussian(R) 09 system (copyright 2009, Gaussian, Inc.),
 the Gaussian(R) 03 system (copyright 2003, Gaussian, Inc.),
 the Gaussian(R) 98 system (copyright 1998, Gaussian, Inc.),
 the Gaussian(R) 94 system (copyright 1995, Gaussian, Inc.),
 the Gaussian 92(TM) system (copyright 1992, Gaussian, Inc.),
 the Gaussian 90(TM) system (copyright 1990, Gaussian, Inc.),
 the Gaussian 88(TM) system (copyright 1988, Gaussian, Inc.),
 the Gaussian 86(TM) system (copyright 1986, Carnegie Mellon
 University), and the Gaussian 82(TM) system (copyright 1983,
 Carnegie Mellon University). Gaussian is a federally registered
 trademark of Gaussian, Inc.
  
 This software contains proprietary and confidential information,
 including trade secrets, belonging to Gaussian, Inc.
  
 This software is provided under written license and may be
 used, copied, transmitted, or stored only in accord with that
 written license.
  
 The following legend is applicable only to US Government
 contracts under FAR:
  
                    RESTRICTED RIGHTS LEGEND
  
 Use, reproduction and disclosure by the US Government is
 subject to restrictions as set forth in subparagraphs (a)
 and (c) of the Commercial Computer Software - Restricted
 Rights clause in FAR 52.227-19.
  
 Gaussian, Inc.
 340 Quinnipiac St., Bldg. 40, Wallingford CT 06492
  
  
 ---------------------------------------------------------------
 Warning -- This program may not be used in any manner that
 competes with the business of Gaussian, Inc. or will provide
 assistance to any competitor of Gaussian, Inc.  The licensee
 of this program is prohibited from giving any competitor of
 Gaussian, Inc. access to this program.  By using this program,
 the user acknowledges that Gaussian, Inc. is engaged in the
 business of creating and licensing software in the field of
 computational chemistry and represents and warrants to the
 licensee that it is not a competitor of Gaussian, Inc. and that
 it will not use this program in any manner prohibited above.
 ---------------------------------------------------------------
  

 Cite this work as:
 Gaussian 16, Revision A.03,
 M. J. Frisch, G. W. Trucks, H. B. Schlegel, G. E. Scuseria, 
 M. A. Robb, J. R. Cheeseman, G. Scalmani, V. Barone, 
 G. A. Petersson, H. Nakatsuji, X. Li, M. Caricato, A. V. Marenich, 
 J. Bloino, B. G. Janesko, R. Gomperts, B. Mennucci, H. P. Hratchian, 
 J. V. Ortiz, A. F. Izmaylov, J. L. Sonnenberg, D. Williams-Young, 
 F. Ding, F. Lipparini, F. Egidi, J. Goings, B. Peng, A. Petrone, 
 T. Henderson, D. Ranasinghe, V. G. Zakrzewski, J. Gao, N. Rega, 
 G. Zheng, W. Liang, M. Hada, M. Ehara, K. Toyota, R. Fukuda, 
 J. Hasegawa, M. Ishida, T. Nakajima, Y. Honda, O. Kitao, H. Nakai, 
 T. Vreven, K. Throssell, J. A. Montgomery, Jr., J. E. Peralta, 
 F. Ogliaro, M. J. Bearpark, J. J. Heyd, E. N. Brothers, K. N. Kudin, 
 V. N. Staroverov, T. A. Keith, R. Kobayashi, J. Normand, 
 K. Raghavachari, A. P. Rendell, J. C. Burant, S. S. Iyengar, 
 J. Tomasi, M. Cossi, J. M. Millam, M. Klene, C. Adamo, R. Cammi, 
 J. W. Ochterski, R. L. Martin, K. Morokuma, O. Farkas, 
 J. B. Foresman, and D. J. Fox, Gaussian, Inc., Wallingford CT, 2016.
 
 ******************************************
 Gaussian 16:  ES64L-G16RevA.03 25-Dec-2016
                19-Feb-2022 
 ******************************************
 %chk=b3b3t_TS_2_m2.chk
 %NProcShared=12
 Will use up to   12 processors via shared memory.
 %mem=2GB
 ----------------------------
 # freq b3lyp/gen pseudo=read
 ----------------------------
 1/10=4,30=1,38=1/1,3;
 2/12=2,17=6,18=5,40=1/2;
 3/5=7,11=2,16=1,17=8,25=1,30=1,71=2,74=-5,140=1/1,2,3;
 4//1;
 5/5=2,38=5,98=1/2;
 8/6=4,10=90,11=11/1;
 11/6=1,8=1,9=11,15=111,16=1/1,2,10;
 10/6=1/2;
 6/7=2,8=2,9=2,10=2,28=1/1;
 7/8=1,10=1,25=1/1,2,3,16;
 1/10=4,30=1/3;
 99//99;
 -------------
 b3b3t_TS_2_m2
 -------------
 Symbolic Z-matrix:
 Charge =  0 Multiplicity = 2
 H                    -1   -7.67706   1.24991  -4.89976 
 H                    -1   -7.67725  -1.24577  -4.89991 
 H                    -1   -3.83842   1.24973  -4.89973 
 H                    -1   -3.83861  -1.24597  -4.89973 
 H                    -1    0.00021   1.24996  -4.89955 
 H                    -1    0.00002  -1.24569  -4.89973 
 H                    -1    3.83885   1.24993  -4.89936 
 H                    -1    3.83863  -1.24577  -4.89913 
 H                    -1    7.67752   1.25006  -4.89933 
 H                    -1    7.67731  -1.24564  -4.89932 
 H                    -1    10.8189   0.00174  -3.60331 
 H                    -1   -10.81873   0.00185  -3.60444 
 H                    -1   -9.59691  -3.06838  -2.01709 
 H                    -1   -5.7581   -3.06811  -2.01703 
 H                    -1   -1.91969  -3.0678   -2.01683 
 H                    -1    1.9189   -3.0682   -2.01653 
 H                    -1    5.75808  -3.06843  -2.01663 
 H                    -1    9.5965   -3.06833  -2.01652 
 H                    -1   -9.59639   3.07207  -2.01686 
 H                    -1   -5.75785   3.07184  -2.01675 
 H                    -1   -1.91892   3.07187  -2.01675 
 H                    -1    1.91901   3.07186  -2.01671 
 H                    -1    5.75923   3.07151  -2.01637 
 H                    -1    9.597     3.07218  -2.01622 
 H                    -1   -10.80803   1.42475  -0.46184 
 H                    -1   -10.80833  -1.42081  -0.46186 
 H                    -1    10.80749   1.42498  -0.46142 
 H                    -1    10.80782  -1.42087  -0.46116 
 Si                   -7.69737  -0.00076  -4.1169 
 Si                   -3.83792   0.00586  -4.10989 
 Si                   -0.01051  -0.00072  -4.12 
 Si                    3.84901   0.00136  -4.12119 
 Si                    7.68511   0.00238  -4.10404 
 Si                   -9.60117  -0.03642  -2.81075 
 Si                   -5.76869   0.00244  -2.82025 
 Si                   -1.91147   0.04189  -2.79564 
 Si                    1.91888  -0.03822  -2.86442 
 Si                    5.74757  -0.0128   -2.7944 
 Si                    9.60038  -0.03303  -2.81147 
 Si                   -9.62797   1.74504  -1.31195 
 Si                   -9.57888  -1.75118  -1.26003 
 Si                   -5.65976   1.76911  -1.24837 
 Si                   -5.88501  -1.76775  -1.24956 
 Si                   -1.99948   1.78702  -1.2215 
 Si                   -1.90019  -1.76335  -1.26803 
 Si                    1.9098    1.72654  -1.37258 
 Si                    1.92483  -1.76389  -1.28909 
 Si                    5.71295   1.78061  -1.23688 
 Si                    5.8224   -1.76819  -1.24199 
 Si                    9.63247   1.74395  -1.31198 
 Si                    9.58629  -1.75076  -1.26446 
 Si                   -7.65406   0.90204  -0.3823 
 Si                   -7.7259   -1.34979   0.20614 
 Si                   -3.84313   1.36424   0.2483 
 Si                   -3.88878  -0.89348  -0.40311 
 Si                    0.00446   1.21897  -0.07606 
 Si                    0.01634  -1.16142  -0.05992 
 Si                    3.77828   1.16957  -0.03302 
 Si                    3.85025  -1.21257  -0.0767 
 Si                    7.68243   0.89179  -0.3472 
 Si                    7.70946  -1.35337   0.14814 
 Cl                    1.88987   1.93122   4.58931 
 Cl                    1.93541   4.50079   1.58592 
 Bi                    1.893     2.05394   2.03226 
 

 GradGradGradGradGradGradGradGradGradGradGradGradGradGradGradGradGradGrad
 Berny optimization.
 Initialization pass.
 Trust Radius=3.00D-01 FncErr=1.00D-07 GrdErr=1.00D-07 EigMax=2.50D+02 EigMin=1.00D-04
 Number of steps in this run=      2 maximum allowed number of steps=      2.
 GradGradGradGradGradGradGradGradGradGradGradGradGradGradGradGradGradGrad

 Stoichiometry    BiCl2H28Si33(2)
 Framework group  C1[X(BiCl2H28Si33)]
 Deg. of freedom   186
 Full point group                 C1      NOp   1
 Largest Abelian subgroup         C1      NOp   1
 Largest concise Abelian subgroup C1      NOp   1
                         Standard orientation:                         
 ---------------------------------------------------------------------
 Center     Atomic      Atomic             Coordinates (Angstroms)
 Number     Number       Type             X           Y           Z
 ---------------------------------------------------------------------
      1          1           0       -8.189580   -2.733679   -2.564288
      2          1           0       -8.252576   -3.889135   -0.353094
      3          1           0       -4.356143   -2.933376   -2.559557
      4          1           0       -4.419127   -4.088710   -0.348278
      5          1           0       -0.522704   -3.132747   -2.555120
      6          1           0       -0.585689   -4.288217   -0.343977
      7          1           0        3.310751   -3.332236   -2.550450
      8          1           0        3.247740   -4.487370   -0.339068
      9          1           0        7.144229   -3.531791   -2.545999
     10          1           0        7.081225   -4.687118   -0.334720
     11          1           0       10.308956   -3.126261   -0.835357
     12          1           0      -11.299427   -2.001872   -0.861660
     13          1           0      -10.084242   -2.082135    2.596039
     14          1           0       -6.250620   -2.281602    2.600384
     15          1           0       -2.417391   -2.480918    2.604753
     16          1           0        1.416006   -2.680476    2.609810
     17          1           0        5.249976   -2.880336    2.614524
     18          1           0        9.083205   -3.079824    2.619041
     19          1           0       -9.929202    0.760666   -2.844506
     20          1           0       -6.095857    0.561012   -2.839696
     21          1           0       -2.262132    0.361376   -2.835175
     22          1           0        1.570603    0.161805   -2.830589
     23          1           0        5.405630   -0.037785   -2.825560
     24          1           0        9.238235   -0.236936   -2.821531
     25          1           0      -11.109846    1.437066   -0.665435
     26          1           0      -11.181755    0.119756    1.855832
     27          1           0       10.476430    0.313357   -0.639781
     28          1           0       10.405159   -1.003873    1.881857
     29         14           0       -8.205693   -2.618871   -1.093228
     30         14           0       -4.350979   -2.810327   -1.091263
     31         14           0       -0.529383   -3.021375   -1.085579
     32         14           0        3.324913   -3.222196   -1.083396
     33         14           0        7.156620   -3.406061   -1.071791
     34         14           0      -10.048338   -1.380600   -0.458346
     35         14           0       -6.220500   -1.570339   -0.492635
     36         14           0       -2.366391   -1.730906   -0.511593
     37         14           0        1.453624   -2.028064   -0.467955
     38         14           0        5.280959   -2.153462   -0.453478
     39         14           0        9.127267   -2.378303   -0.438889
     40         14           0       -9.962033    0.771733   -1.341947
     41         14           0       -9.998618   -0.803402    1.779956
     42         14           0       -5.995702    0.632751   -1.329082
     43         14           0       -6.309695   -0.993918    1.803881
     44         14           0       -2.338700    0.474456   -1.328147
     45         14           0       -2.330992   -1.215470    1.796147
     46         14           0        1.556888    0.109461   -1.339969
     47         14           0        1.487867   -1.433286    1.791401
     48         14           0        5.362422    0.056767   -1.320453
     49         14           0        5.382202   -1.596301    1.821677
     50         14           0        9.272294   -0.230504   -1.318127
     51         14           0        9.140410   -1.803873    1.800284
     52         14           0       -7.969679    1.101431   -0.161669
     53         14           0       -8.071291    0.583410    2.106255
     54         14           0       -4.123573    1.675196   -0.274321
     55         14           0       -4.255626    0.055986    1.424041
     56         14           0       -0.299609    1.120826   -0.291420
     57         14           0       -0.346905    0.032529    1.825193
     58         14           0        3.469815    0.939768   -0.223211
     59         14           0        3.479758   -0.205391    1.867281
     60         14           0        7.347381    0.330127   -0.118117
     61         14           0        7.340436   -0.272335    2.100852
     62         17           0        1.813588    5.480722    1.242678
     63         17           0        1.786974    4.010295   -2.426412
     64         83           0        1.703379    3.274719   -0.051540
 ---------------------------------------------------------------------
 Rotational constants (GHZ):           0.0603127           0.0131418           0.0117635
 General basis read from cards:  (5D, 7F)
 ======================================================================================================
                                       Pseudopotential Parameters
 ======================================================================================================
  Center     Atomic      Valence      Angular      Power
  Number     Number     Electrons     Momentum     of R      Exponent        Coefficient   SO-Coeffient
 ======================================================================================================
    1          1
                                   No pseudopotential on this center.
    2          1
                                   No pseudopotential on this center.
    3          1
                                   No pseudopotential on this center.
    4          1
                                   No pseudopotential on this center.
    5          1
                                   No pseudopotential on this center.
    6          1
                                   No pseudopotential on this center.
    7          1
                                   No pseudopotential on this center.
    8          1
                                   No pseudopotential on this center.
    9          1
                                   No pseudopotential on this center.
   10          1
                                   No pseudopotential on this center.
   11          1
                                   No pseudopotential on this center.
   12          1
                                   No pseudopotential on this center.
   13          1
                                   No pseudopotential on this center.
   14          1
                                   No pseudopotential on this center.
   15          1
                                   No pseudopotential on this center.
   16          1
                                   No pseudopotential on this center.
   17          1
                                   No pseudopotential on this center.
   18          1
                                   No pseudopotential on this center.
   19          1
                                   No pseudopotential on this center.
   20          1
                                   No pseudopotential on this center.
   21          1
                                   No pseudopotential on this center.
   22          1
                                   No pseudopotential on this center.
   23          1
                                   No pseudopotential on this center.
   24          1
                                   No pseudopotential on this center.
   25          1
                                   No pseudopotential on this center.
   26          1
                                   No pseudopotential on this center.
   27          1
                                   No pseudopotential on this center.
   28          1
                                   No pseudopotential on this center.
   29         14            4
                                      D and up 
                                                     1      505.3137693      -10.00000000    0.00000000
                                                     2      103.2221026      -84.92360870    0.00000000
                                                     2       23.4569248      -30.32994100    0.00000000
                                                     2        6.7505693      -12.10490460    0.00000000
                                                     2        2.1603140       -1.89454080    0.00000000
                                      S - D
                                                     0      689.4910719        3.00000000    0.00000000
                                                     1      114.1728510       60.52068330    0.00000000
                                                     2       35.7424336      201.30861370    0.00000000
                                                     2        9.4529586       65.93997450    0.00000000
                                                     2        2.2543590       19.03007890    0.00000000
                                      P - D
                                                     0       88.9379355        5.00000000    0.00000000
                                                     1       76.7773538        6.64138170    0.00000000
                                                     2       56.1480987      247.59724160    0.00000000
                                                     2       21.1874014      129.37153800    0.00000000
                                                     2        6.8277276       47.46171070    0.00000000
                                                     2        2.1001192       11.73765740    0.00000000
   30         14            4
                                      D and up 
                                                     1      505.3137693      -10.00000000    0.00000000
                                                     2      103.2221026      -84.92360870    0.00000000
                                                     2       23.4569248      -30.32994100    0.00000000
                                                     2        6.7505693      -12.10490460    0.00000000
                                                     2        2.1603140       -1.89454080    0.00000000
                                      S - D
                                                     0      689.4910719        3.00000000    0.00000000
                                                     1      114.1728510       60.52068330    0.00000000
                                                     2       35.7424336      201.30861370    0.00000000
                                                     2        9.4529586       65.93997450    0.00000000
                                                     2        2.2543590       19.03007890    0.00000000
                                      P - D
                                                     0       88.9379355        5.00000000    0.00000000
                                                     1       76.7773538        6.64138170    0.00000000
                                                     2       56.1480987      247.59724160    0.00000000
                                                     2       21.1874014      129.37153800    0.00000000
                                                     2        6.8277276       47.46171070    0.00000000
                                                     2        2.1001192       11.73765740    0.00000000
   31         14            4
                                      D and up 
                                                     1      505.3137693      -10.00000000    0.00000000
                                                     2      103.2221026      -84.92360870    0.00000000
                                                     2       23.4569248      -30.32994100    0.00000000
                                                     2        6.7505693      -12.10490460    0.00000000
                                                     2        2.1603140       -1.89454080    0.00000000
                                      S - D
                                                     0      689.4910719        3.00000000    0.00000000
                                                     1      114.1728510       60.52068330    0.00000000
                                                     2       35.7424336      201.30861370    0.00000000
                                                     2        9.4529586       65.93997450    0.00000000
                                                     2        2.2543590       19.03007890    0.00000000
                                      P - D
                                                     0       88.9379355        5.00000000    0.00000000
                                                     1       76.7773538        6.64138170    0.00000000
                                                     2       56.1480987      247.59724160    0.00000000
                                                     2       21.1874014      129.37153800    0.00000000
                                                     2        6.8277276       47.46171070    0.00000000
                                                     2        2.1001192       11.73765740    0.00000000
   32         14            4
                                      D and up 
                                                     1      505.3137693      -10.00000000    0.00000000
                                                     2      103.2221026      -84.92360870    0.00000000
                                                     2       23.4569248      -30.32994100    0.00000000
                                                     2        6.7505693      -12.10490460    0.00000000
                                                     2        2.1603140       -1.89454080    0.00000000
                                      S - D
                                                     0      689.4910719        3.00000000    0.00000000
                                                     1      114.1728510       60.52068330    0.00000000
                                                     2       35.7424336      201.30861370    0.00000000
                                                     2        9.4529586       65.93997450    0.00000000
                                                     2        2.2543590       19.03007890    0.00000000
                                      P - D
                                                     0       88.9379355        5.00000000    0.00000000
                                                     1       76.7773538        6.64138170    0.00000000
                                                     2       56.1480987      247.59724160    0.00000000
                                                     2       21.1874014      129.37153800    0.00000000
                                                     2        6.8277276       47.46171070    0.00000000
                                                     2        2.1001192       11.73765740    0.00000000
   33         14            4
                                      D and up 
                                                     1      505.3137693      -10.00000000    0.00000000
                                                     2      103.2221026      -84.92360870    0.00000000
                                                     2       23.4569248      -30.32994100    0.00000000
                                                     2        6.7505693      -12.10490460    0.00000000
                                                     2        2.1603140       -1.89454080    0.00000000
                                      S - D
                                                     0      689.4910719        3.00000000    0.00000000
                                                     1      114.1728510       60.52068330    0.00000000
                                                     2       35.7424336      201.30861370    0.00000000
                                                     2        9.4529586       65.93997450    0.00000000
                                                     2        2.2543590       19.03007890    0.00000000
                                      P - D
                                                     0       88.9379355        5.00000000    0.00000000
                                                     1       76.7773538        6.64138170    0.00000000
                                                     2       56.1480987      247.59724160    0.00000000
                                                     2       21.1874014      129.37153800    0.00000000
                                                     2        6.8277276       47.46171070    0.00000000
                                                     2        2.1001192       11.73765740    0.00000000
   34         14            4
                                      D and up 
                                                     1      505.3137693      -10.00000000    0.00000000
                                                     2      103.2221026      -84.92360870    0.00000000
                                                     2       23.4569248      -30.32994100    0.00000000
                                                     2        6.7505693      -12.10490460    0.00000000
                                                     2        2.1603140       -1.89454080    0.00000000
                                      S - D
                                                     0      689.4910719        3.00000000    0.00000000
                                                     1      114.1728510       60.52068330    0.00000000
                                                     2       35.7424336      201.30861370    0.00000000
                                                     2        9.4529586       65.93997450    0.00000000
                                                     2        2.2543590       19.03007890    0.00000000
                                      P - D
                                                     0       88.9379355        5.00000000    0.00000000
                                                     1       76.7773538        6.64138170    0.00000000
                                                     2       56.1480987      247.59724160    0.00000000
                                                     2       21.1874014      129.37153800    0.00000000
                                                     2        6.8277276       47.46171070    0.00000000
                                                     2        2.1001192       11.73765740    0.00000000
   35         14            4
                                      D and up 
                                                     1      505.3137693      -10.00000000    0.00000000
                                                     2      103.2221026      -84.92360870    0.00000000
                                                     2       23.4569248      -30.32994100    0.00000000
                                                     2        6.7505693      -12.10490460    0.00000000
                                                     2        2.1603140       -1.89454080    0.00000000
                                      S - D
                                                     0      689.4910719        3.00000000    0.00000000
                                                     1      114.1728510       60.52068330    0.00000000
                                                     2       35.7424336      201.30861370    0.00000000
                                                     2        9.4529586       65.93997450    0.00000000
                                                     2        2.2543590       19.03007890    0.00000000
                                      P - D
                                                     0       88.9379355        5.00000000    0.00000000
                                                     1       76.7773538        6.64138170    0.00000000
                                                     2       56.1480987      247.59724160    0.00000000
                                                     2       21.1874014      129.37153800    0.00000000
                                                     2        6.8277276       47.46171070    0.00000000
                                                     2        2.1001192       11.73765740    0.00000000
   36         14            4
                                      D and up 
                                                     1      505.3137693      -10.00000000    0.00000000
                                                     2      103.2221026      -84.92360870    0.00000000
                                                     2       23.4569248      -30.32994100    0.00000000
                                                     2        6.7505693      -12.10490460    0.00000000
                                                     2        2.1603140       -1.89454080    0.00000000
                                      S - D
                                                     0      689.4910719        3.00000000    0.00000000
                                                     1      114.1728510       60.52068330    0.00000000
                                                     2       35.7424336      201.30861370    0.00000000
                                                     2        9.4529586       65.93997450    0.00000000
                                                     2        2.2543590       19.03007890    0.00000000
                                      P - D
                                                     0       88.9379355        5.00000000    0.00000000
                                                     1       76.7773538        6.64138170    0.00000000
                                                     2       56.1480987      247.59724160    0.00000000
                                                     2       21.1874014      129.37153800    0.00000000
                                                     2        6.8277276       47.46171070    0.00000000
                                                     2        2.1001192       11.73765740    0.00000000
   37         14            4
                                      D and up 
                                                     1      505.3137693      -10.00000000    0.00000000
                                                     2      103.2221026      -84.92360870    0.00000000
                                                     2       23.4569248      -30.32994100    0.00000000
                                                     2        6.7505693      -12.10490460    0.00000000
                                                     2        2.1603140       -1.89454080    0.00000000
                                      S - D
                                                     0      689.4910719        3.00000000    0.00000000
                                                     1      114.1728510       60.52068330    0.00000000
                                                     2       35.7424336      201.30861370    0.00000000
                                                     2        9.4529586       65.93997450    0.00000000
                                                     2        2.2543590       19.03007890    0.00000000
                                      P - D
                                                     0       88.9379355        5.00000000    0.00000000
                                                     1       76.7773538        6.64138170    0.00000000
                                                     2       56.1480987      247.59724160    0.00000000
                                                     2       21.1874014      129.37153800    0.00000000
                                                     2        6.8277276       47.46171070    0.00000000
                                                     2        2.1001192       11.73765740    0.00000000
   38         14            4
                                      D and up 
                                                     1      505.3137693      -10.00000000    0.00000000
                                                     2      103.2221026      -84.92360870    0.00000000
                                                     2       23.4569248      -30.32994100    0.00000000
                                                     2        6.7505693      -12.10490460    0.00000000
                                                     2        2.1603140       -1.89454080    0.00000000
                                      S - D
                                                     0      689.4910719        3.00000000    0.00000000
                                                     1      114.1728510       60.52068330    0.00000000
                                                     2       35.7424336      201.30861370    0.00000000
                                                     2        9.4529586       65.93997450    0.00000000
                                                     2        2.2543590       19.03007890    0.00000000
                                      P - D
                                                     0       88.9379355        5.00000000    0.00000000
                                                     1       76.7773538        6.64138170    0.00000000
                                                     2       56.1480987      247.59724160    0.00000000
                                                     2       21.1874014      129.37153800    0.00000000
                                                     2        6.8277276       47.46171070    0.00000000
                                                     2        2.1001192       11.73765740    0.00000000
   39         14            4
                                      D and up 
                                                     1      505.3137693      -10.00000000    0.00000000
                                                     2      103.2221026      -84.92360870    0.00000000
                                                     2       23.4569248      -30.32994100    0.00000000
                                                     2        6.7505693      -12.10490460    0.00000000
                                                     2        2.1603140       -1.89454080    0.00000000
                                      S - D
                                                     0      689.4910719        3.00000000    0.00000000
                                                     1      114.1728510       60.52068330    0.00000000
                                                     2       35.7424336      201.30861370    0.00000000
                                                     2        9.4529586       65.93997450    0.00000000
                                                     2        2.2543590       19.03007890    0.00000000
                                      P - D
                                                     0       88.9379355        5.00000000    0.00000000
                                                     1       76.7773538        6.64138170    0.00000000
                                                     2       56.1480987      247.59724160    0.00000000
                                                     2       21.1874014      129.37153800    0.00000000
                                                     2        6.8277276       47.46171070    0.00000000
                                                     2        2.1001192       11.73765740    0.00000000
   40         14
                                   No pseudopotential on this center.
   41         14
                                   No pseudopotential on this center.
   42         14
                                   No pseudopotential on this center.
   43         14
                                   No pseudopotential on this center.
   44         14
                                   No pseudopotential on this center.
   45         14
                                   No pseudopotential on this center.
   46         14
                                   No pseudopotential on this center.
   47         14
                                   No pseudopotential on this center.
   48         14
                                   No pseudopotential on this center.
   49         14
                                   No pseudopotential on this center.
   50         14
                                   No pseudopotential on this center.
   51         14
                                   No pseudopotential on this center.
   52         14
                                   No pseudopotential on this center.
   53         14
                                   No pseudopotential on this center.
   54         14
                                   No pseudopotential on this center.
   55         14
                                   No pseudopotential on this center.
   56         14
                                   No pseudopotential on this center.
   57         14
                                   No pseudopotential on this center.
   58         14
                                   No pseudopotential on this center.
   59         14
                                   No pseudopotential on this center.
   60         14
                                   No pseudopotential on this center.
   61         14
                                   No pseudopotential on this center.
   62         17
                                   No pseudopotential on this center.
   63         17
                                   No pseudopotential on this center.
   64         83            5
                                      G and up 
                                                     0      223.3091971       -0.18335200    0.00000000
                                                     1       86.4699216      -53.33894920    0.00000000
                                                     2       26.8492203     -201.91178410    0.00000000
                                                     2        9.3823622      -76.31152950    0.00000000
                                                     2        2.7614708      -24.25784680    0.00000000
                                                     2        0.9423923       -4.03197000    0.00000000
                                      S - G
                                                     0      155.9783914        2.79165100    0.00000000
                                                     1       54.4591139       71.85538170    0.00000000
                                                     2       20.1794558      252.43274440    0.00000000
                                                     2        6.1273104       89.60451090    0.00000000
                                                     2        1.1805983       61.17441360    0.00000000
                                                     2        0.9932464      -33.04719060    0.00000000
                                      P - G
                                                     0       74.5091386        4.84629140    0.00000000
                                                     1       28.0487647       65.68833960    0.00000000
                                                     2       12.0168508      166.26196730    0.00000000
                                                     2        3.6914327       54.13933290    0.00000000
                                                     2        0.9080824       28.62048800    0.00000000
                                                     2        0.7394617      -12.34522040    0.00000000
                                      D - G
                                                     0       68.0856679        3.21838320    0.00000000
                                                     1       23.7250355       54.89526810    0.00000000
                                                     2        9.2437053      116.55407080    0.00000000
                                                     2        1.8452292       69.07606620    0.00000000
                                                     2        1.2209859      -72.64108700    0.00000000
                                                     2        0.8740861       38.94000550    0.00000000
                                      F - G
                                                     0      134.3538983        3.98640750    0.00000000
                                                     1       51.5812797       63.02620780    0.00000000
                                                     2       54.9307284       92.52599590    0.00000000
                                                     2       17.0475346      240.99736720    0.00000000
                                                     2        3.7702824       62.18445770    0.00000000
                                                     2        0.7670500       -1.72511340    0.00000000
 ======================================================================================================
 There are   857 symmetry adapted cartesian basis functions of A   symmetry.
 There are   832 symmetry adapted basis functions of A   symmetry.
   832 basis functions,  1423 primitive gaussians,   857 cartesian basis functions
   210 alpha electrons      209 beta electrons
       nuclear repulsion energy      7543.7159885905 Hartrees.
 NAtoms=   64 NActive=   64 NUniq=   64 SFac= 1.00D+00 NAtFMM=   60 NAOKFM=T Big=T
 Integral buffers will be    131072 words long.
 Raffenetti 2 integral format.
 Two-electron integral symmetry is turned on.
 One-electron integrals computed using PRISM.
   1 Symmetry operations used in ECPInt.
 ECPInt:  NShTT=   82621 NPrTT=  283844 LenC2=   53914 LenP2D=  115605.
 LDataN:  DoStor=T MaxTD1= 6 Len=  172
 NBasis=   832 RedAO= T EigKep=  2.50D-05  NBF=   832
 NBsUse=   832 1.00D-06 EigRej= -1.00D+00 NBFU=   832
 Defaulting to unpruned grid for atomic number  83.
 ExpMin= 2.04D-02 ExpMax= 1.06D+05 ExpMxC= 3.62D+03 IAcc=3 IRadAn=         5 AccDes= 0.00D+00
 Harris functional with IExCor=  402 and IRadAn=       5 diagonalized for initial guess.
 HarFok:  IExCor=  402 AccDes= 0.00D+00 IRadAn=         5 IDoV= 1 UseB2=F ITyADJ=14
 ICtDFT=  3500011 ScaDFX=  1.000000  1.000000  1.000000  1.000000
 Defaulting to unpruned grid for atomic number  83.
 FoFCou: FMM=F IPFlag=           0 FMFlag=      100000 FMFlg1=        2001
         NFxFlg=           0 DoJE=T BraDBF=F KetDBF=T FulRan=T
         wScrn=  0.000000 ICntrl=       500 IOpCl=  0 I1Cent=   200000004 NGrid=           0
         NMat0=    1 NMatS0=      1 NMatT0=    0 NMatD0=    1 NMtDS0=    0 NMtDT0=    0
 Petite list used in FoFCou.
 Initial guess <Sx>= 0.0000 <Sy>= 0.0000 <Sz>= 0.5000 <S**2>= 0.7500 S= 0.5000
 Requested convergence on RMS density matrix=1.00D-08 within 128 cycles.
 Requested convergence on MAX density matrix=1.00D-06.
 Requested convergence on             energy=1.00D-06.
 No special actions if energy rises.
 Defaulting to unpruned grid for atomic number  83.
 Defaulting to unpruned grid for atomic number  83.
 Defaulting to unpruned grid for atomic number  83.
 Defaulting to unpruned grid for atomic number  83.
 Defaulting to unpruned grid for atomic number  83.
 Defaulting to unpruned grid for atomic number  83.
 Defaulting to unpruned grid for atomic number  83.
 Defaulting to unpruned grid for atomic number  83.
 Defaulting to unpruned grid for atomic number  83.
 Defaulting to unpruned grid for atomic number  83.
 Defaulting to unpruned grid for atomic number  83.
 Defaulting to unpruned grid for atomic number  83.
 Restarting incremental Fock formation.
 SCF Done:  E(UB3LYP) =  -7354.88291514     A.U. after   30 cycles
            NFock= 30  Conv=0.35D-08     -V/T= 2.0059
 <Sx>= 0.0000 <Sy>= 0.0000 <Sz>= 0.5000 <S**2>= 1.5567 S= 0.8441
 <L.S>= 0.000000000000E+00
 Annihilation of the first spin contaminant:
 S**2 before annihilation     1.5567,   after     0.7964
 DoSCS=F DFT=T ScalE2(SS,OS)=  1.000000  1.000000
 Range of M.O.s used for correlation:     1   832
 NBasis=   832 NAE=   210 NBE=   209 NFC=     0 NFV=     0
 NROrb=    832 NOA=   210 NOB=   209 NVA=   622 NVB=   623

 **** Warning!!: The largest alpha MO coefficient is  0.32334647D+02


 **** Warning!!: The smallest alpha delta epsilon is  0.57811157D-01


 **** Warning!!: The largest beta MO coefficient is  0.29948896D+02


 **** Warning!!: The smallest beta delta epsilon is  0.52931762D-01

 PrsmSu:  requested number of processors reduced to:   3 ShMem   1 Linda.
   1 Symmetry operations used in ECPInt.
 ECPInt:  NShTT=   82621 NPrTT=  283844 LenC2=   53914 LenP2D=  115605.
 LDataN:  DoStor=T MaxTD1= 7 Len=  274
 Number of processors reduced to   1 by ecpmxn.
 Symmetrizing basis deriv contribution to polar:
 IMax=3 JMax=2 DiffMx= 0.00D+00
 G2DrvN: will do     7 centers at a time, making   10 passes.
 Calling FoFCou, ICntrl=  3107 FMM=T I1Cent=   0 AccDes= 0.00D+00.
 Defaulting to unpruned grid for atomic number  83.
 Defaulting to unpruned grid for atomic number  83.
 Defaulting to unpruned grid for atomic number  83.
 Defaulting to unpruned grid for atomic number  83.
 Defaulting to unpruned grid for atomic number  83.
 Defaulting to unpruned grid for atomic number  83.
 Defaulting to unpruned grid for atomic number  83.
 Defaulting to unpruned grid for atomic number  83.
 Defaulting to unpruned grid for atomic number  83.
 Defaulting to unpruned grid for atomic number  83.
 Defaulting to unpruned grid for atomic number  83.
 Defaulting to unpruned grid for atomic number  83.
 Calling FoFCou, ICntrl=  3107 FMM=T I1Cent=   0 AccDes= 0.00D+00.
 Calling FoFCou, ICntrl=  3107 FMM=T I1Cent=   0 AccDes= 0.00D+00.
 Calling FoFCou, ICntrl=  3107 FMM=T I1Cent=   0 AccDes= 0.00D+00.
 Calling FoFCou, ICntrl=  3107 FMM=T I1Cent=   0 AccDes= 0.00D+00.
 Calling FoFCou, ICntrl=  3107 FMM=T I1Cent=   0 AccDes= 0.00D+00.
 Calling FoFCou, ICntrl=  3107 FMM=T I1Cent=   0 AccDes= 0.00D+00.
 Calling FoFCou, ICntrl=  3107 FMM=T I1Cent=   0 AccDes= 0.00D+00.
 Calling FoFCou, ICntrl=  3107 FMM=T I1Cent=   0 AccDes= 0.00D+00.
 Calling FoFCou, ICntrl=  3107 FMM=T I1Cent=   0 AccDes= 0.00D+00.
 End of G2Drv F.D. properties file   721 does not exist.
 End of G2Drv F.D. properties file   722 does not exist.
 End of G2Drv F.D. properties file   788 does not exist.
          IDoAtm=00000000000000000000000000001111111111111111111111
          IDoAtm=11111111111111
          Differentiating once with respect to electric field.
                with respect to dipole field.
          Differentiating once with respect to nuclear coordinates.
 Defaulting to unpruned grid for atomic number  83.
 CalDSu exits because no D1Ps are significant.
 Defaulting to unpruned grid for atomic number  83.
 Defaulting to unpruned grid for atomic number  83.
 Defaulting to unpruned grid for atomic number  83.
 Defaulting to unpruned grid for atomic number  83.
 Defaulting to unpruned grid for atomic number  83.
 Defaulting to unpruned grid for atomic number  83.
 Defaulting to unpruned grid for atomic number  83.
 Defaulting to unpruned grid for atomic number  83.
 Defaulting to unpruned grid for atomic number  83.
 Defaulting to unpruned grid for atomic number  83.
 Defaulting to unpruned grid for atomic number  83.
 Defaulting to unpruned grid for atomic number  83.
          There are   111 degrees of freedom in the 1st order CPHF.  IDoFFX=6 NUNeed=     3.
    111 vectors produced by pass  0 Test12= 2.61D-13 1.00D-09 XBig12= 7.96D+03 1.90D+01.
 AX will form    12 AO Fock derivatives at one time.
    111 vectors produced by pass  1 Test12= 2.61D-13 1.00D-09 XBig12= 1.83D+03 4.60D+00.
    111 vectors produced by pass  2 Test12= 2.61D-13 1.00D-09 XBig12= 4.64D+01 1.17D+00.
    111 vectors produced by pass  3 Test12= 2.61D-13 1.00D-09 XBig12= 2.11D+00 2.93D-01.
    111 vectors produced by pass  4 Test12= 2.61D-13 1.00D-09 XBig12= 4.10D-02 1.72D-02.
    111 vectors produced by pass  5 Test12= 2.61D-13 1.00D-09 XBig12= 8.17D-04 4.19D-03.
    111 vectors produced by pass  6 Test12= 2.61D-13 1.00D-09 XBig12= 1.02D-05 2.24D-04.
    111 vectors produced by pass  7 Test12= 2.61D-13 1.00D-09 XBig12= 8.22D-08 1.51D-05.
     78 vectors produced by pass  8 Test12= 2.61D-13 1.00D-09 XBig12= 5.73D-10 1.49D-06.
     53 vectors produced by pass  9 Test12= 2.61D-13 1.00D-09 XBig12= 3.71D-12 1.08D-07.
     35 vectors produced by pass 10 Test12= 2.61D-13 1.00D-09 XBig12= 3.61D-14 7.75D-09.
     22 vectors produced by pass 11 Test12= 2.61D-13 1.00D-09 XBig12= 1.18D-14 5.08D-09.
     22 vectors produced by pass 12 Test12= 2.61D-13 1.00D-09 XBig12= 9.81D-15 3.55D-09.
     22 vectors produced by pass 13 Test12= 2.61D-13 1.00D-09 XBig12= 9.42D-15 2.84D-09.
     22 vectors produced by pass 14 Test12= 2.61D-13 1.00D-09 XBig12= 1.10D-14 4.08D-09.
     19 vectors produced by pass 15 Test12= 2.61D-13 1.00D-09 XBig12= 8.05D-15 3.41D-09.
     19 vectors produced by pass 16 Test12= 2.61D-13 1.00D-09 XBig12= 1.31D-14 4.35D-09.
     18 vectors produced by pass 17 Test12= 2.61D-13 1.00D-09 XBig12= 1.09D-14 3.31D-09.
     18 vectors produced by pass 18 Test12= 2.61D-13 1.00D-09 XBig12= 1.05D-14 3.02D-09.
     16 vectors produced by pass 19 Test12= 2.61D-13 1.00D-09 XBig12= 1.39D-14 3.31D-09.
     11 vectors produced by pass 20 Test12= 2.61D-13 1.00D-09 XBig12= 9.45D-15 3.23D-09.
     11 vectors produced by pass 21 Test12= 2.61D-13 1.00D-09 XBig12= 8.63D-15 3.04D-09.
     10 vectors produced by pass 22 Test12= 2.61D-13 1.00D-09 XBig12= 8.57D-15 2.89D-09.
      8 vectors produced by pass 23 Test12= 2.61D-13 1.00D-09 XBig12= 5.92D-15 2.46D-09.
      8 vectors produced by pass 24 Test12= 2.61D-13 1.00D-09 XBig12= 9.15D-15 2.87D-09.
      8 vectors produced by pass 25 Test12= 2.61D-13 1.00D-09 XBig12= 7.39D-15 2.63D-09.
      8 vectors produced by pass 26 Test12= 2.61D-13 1.00D-09 XBig12= 8.71D-15 2.92D-09.
      8 vectors produced by pass 27 Test12= 2.61D-13 1.00D-09 XBig12= 7.25D-15 2.74D-09.
      8 vectors produced by pass 28 Test12= 2.61D-13 1.00D-09 XBig12= 1.44D-14 3.61D-09.
      8 vectors produced by pass 29 Test12= 2.61D-13 1.00D-09 XBig12= 8.99D-15 3.48D-09.
      8 vectors produced by pass 30 Test12= 2.61D-13 1.00D-09 XBig12= 1.24D-14 3.31D-09.
      6 vectors produced by pass 31 Test12= 2.61D-13 1.00D-09 XBig12= 4.77D-15 1.87D-09.
      6 vectors produced by pass 32 Test12= 2.61D-13 1.00D-09 XBig12= 6.18D-15 2.65D-09.
      6 vectors produced by pass 33 Test12= 2.61D-13 1.00D-09 XBig12= 5.69D-15 2.32D-09.
      6 vectors produced by pass 34 Test12= 2.61D-13 1.00D-09 XBig12= 6.84D-15 2.55D-09.
      6 vectors produced by pass 35 Test12= 2.61D-13 1.00D-09 XBig12= 4.47D-15 2.09D-09.
      6 vectors produced by pass 36 Test12= 2.61D-13 1.00D-09 XBig12= 5.03D-15 1.78D-09.
      6 vectors produced by pass 37 Test12= 2.61D-13 1.00D-09 XBig12= 6.91D-15 2.92D-09.
      5 vectors produced by pass 38 Test12= 2.61D-13 1.00D-09 XBig12= 4.15D-15 2.00D-09.
      5 vectors produced by pass 39 Test12= 2.61D-13 1.00D-09 XBig12= 7.59D-15 3.13D-09.
      5 vectors produced by pass 40 Test12= 2.61D-13 1.00D-09 XBig12= 1.61D-14 4.34D-09.
      5 vectors produced by pass 41 Test12= 2.61D-13 1.00D-09 XBig12= 3.42D-15 1.74D-09.
      5 vectors produced by pass 42 Test12= 2.61D-13 1.00D-09 XBig12= 6.21D-15 2.68D-09.
      5 vectors produced by pass 43 Test12= 2.61D-13 1.00D-09 XBig12= 5.41D-15 2.31D-09.
      5 vectors produced by pass 44 Test12= 2.61D-13 1.00D-09 XBig12= 8.92D-15 4.37D-09.
      5 vectors produced by pass 45 Test12= 2.61D-13 1.00D-09 XBig12= 6.24D-15 2.42D-09.
      4 vectors produced by pass 46 Test12= 2.61D-13 1.00D-09 XBig12= 3.39D-15 1.93D-09.
      3 vectors produced by pass 47 Test12= 2.61D-13 1.00D-09 XBig12= 4.45D-15 1.93D-09.
      3 vectors produced by pass 48 Test12= 2.61D-13 1.00D-09 XBig12= 5.03D-15 2.04D-09.
      3 vectors produced by pass 49 Test12= 2.61D-13 1.00D-09 XBig12= 4.26D-15 1.81D-09.
      2 vectors produced by pass 50 Test12= 2.61D-13 1.00D-09 XBig12= 3.73D-15 1.93D-09.
 InvSVY:  IOpt=1 It=  1 EMax= 8.53D-14
 Solved reduced A of dimension  1425 with   111 vectors.
 Isotropic polarizability for W=    0.000000     1275.96 Bohr**3.
 End of Minotr F.D. properties file   721 does not exist.
 End of Minotr F.D. properties file   722 does not exist.
 End of Minotr F.D. properties file   788 does not exist.

 **********************************************************************

            Population analysis using the SCF density.

 **********************************************************************

 Orbital symmetries:
 Alpha Orbitals:
       Occupied  (A) (A) (A) (A) (A) (A) (A) (A) (A) (A) (A) (A)
                 (A) (A) (A) (A) (A) (A) (A) (A) (A) (A) (A) (A)
                 (A) (A) (A) (A) (A) (A) (A) (A) (A) (A) (A) (A)
                 (A) (A) (A) (A) (A) (A) (A) (A) (A) (A) (A) (A)
                 (A) (A) (A) (A) (A) (A) (A) (A) (A) (A) (A) (A)
                 (A) (A) (A) (A) (A) (A) (A) (A) (A) (A) (A) (A)
                 (A) (A) (A) (A) (A) (A) (A) (A) (A) (A) (A) (A)
                 (A) (A) (A) (A) (A) (A) (A) (A) (A) (A) (A) (A)
                 (A) (A) (A) (A) (A) (A) (A) (A) (A) (A) (A) (A)
                 (A) (A) (A) (A) (A) (A) (A) (A) (A) (A) (A) (A)
                 (A) (A) (A) (A) (A) (A) (A) (A) (A) (A) (A) (A)
                 (A) (A) (A) (A) (A) (A) (A) (A) (A) (A) (A) (A)
                 (A) (A) (A) (A) (A) (A) (A) (A) (A) (A) (A) (A)
                 (A) (A) (A) (A) (A) (A) (A) (A) (A) (A) (A) (A)
                 (A) (A) (A) (A) (A) (A) (A) (A) (A) (A) (A) (A)
                 (A) (A) (A) (A) (A) (A) (A) (A) (A) (A) (A) (A)
                 (A) (A) (A) (A) (A) (A) (A) (A) (A) (A) (A) (A)
                 (A) (A) (A) (A) (A) (A)
       Virtual   (A) (A) (A) (A) (A) (A) (A) (A) (A) (A) (A) (A)
                 (A) (A) (A) (A) (A) (A) (A) (A) (A) (A) (A) (A)
                 (A) (A) (A) (A) (A) (A) (A) (A) (A) (A) (A) (A)
                 (A) (A) (A) (A) (A) (A) (A) (A) (A) (A) (A) (A)
                 (A) (A) (A) (A) (A) (A) (A) (A) (A) (A) (A) (A)
                 (A) (A) (A) (A) (A) (A) (A) (A) (A) (A) (A) (A)
                 (A) (A) (A) (A) (A) (A) (A) (A) (A) (A) (A) (A)
                 (A) (A) (A) (A) (A) (A) (A) (A) (A) (A) (A) (A)
                 (A) (A) (A) (A) (A) (A) (A) (A) (A) (A) (A) (A)
                 (A) (A) (A) (A) (A) (A) (A) (A) (A) (A) (A) (A)
                 (A) (A) (A) (A) (A) (A) (A) (A) (A) (A) (A) (A)
                 (A) (A) (A) (A) (A) (A) (A) (A) (A) (A) (A) (A)
                 (A) (A) (A) (A) (A) (A) (A) (A) (A) (A) (A) (A)
                 (A) (A) (A) (A) (A) (A) (A) (A) (A) (A) (A) (A)
                 (A) (A) (A) (A) (A) (A) (A) (A) (A) (A) (A) (A)
                 (A) (A) (A) (A) (A) (A) (A) (A) (A) (A) (A) (A)
                 (A) (A) (A) (A) (A) (A) (A) (A) (A) (A) (A) (A)
                 (A) (A) (A) (A) (A) (A) (A) (A) (A) (A) (A) (A)
                 (A) (A) (A) (A) (A) (A) (A) (A) (A) (A) (A) (A)
                 (A) (A) (A) (A) (A) (A) (A) (A) (A) (A) (A) (A)
                 (A) (A) (A) (A) (A) (A) (A) (A) (A) (A) (A) (A)
                 (A) (A) (A) (A) (A) (A) (A) (A) (A) (A) (A) (A)
                 (A) (A) (A) (A) (A) (A) (A) (A) (A) (A) (A) (A)
                 (A) (A) (A) (A) (A) (A) (A) (A) (A) (A) (A) (A)
                 (A) (A) (A) (A) (A) (A) (A) (A) (A) (A) (A) (A)
                 (A) (A) (A) (A) (A) (A) (A) (A) (A) (A) (A) (A)
                 (A) (A) (A) (A) (A) (A) (A) (A) (A) (A) (A) (A)
                 (A) (A) (A) (A) (A) (A) (A) (A) (A) (A) (A) (A)
                 (A) (A) (A) (A) (A) (A) (A) (A) (A) (A) (A) (A)
                 (A) (A) (A) (A) (A) (A) (A) (A) (A) (A) (A) (A)
                 (A) (A) (A) (A) (A) (A) (A) (A) (A) (A) (A) (A)
                 (A) (A) (A) (A) (A) (A) (A) (A) (A) (A) (A) (A)
                 (A) (A) (A) (A) (A) (A) (A) (A) (A) (A) (A) (A)
                 (A) (A) (A) (A) (A) (A) (A) (A) (A) (A) (A) (A)
                 (A) (A) (A) (A) (A) (A) (A) (A) (A) (A) (A) (A)
                 (A) (A) (A) (A) (A) (A) (A) (A) (A) (A) (A) (A)
                 (A) (A) (A) (A) (A) (A) (A) (A) (A) (A) (A) (A)
                 (A) (A) (A) (A) (A) (A) (A) (A) (A) (A) (A) (A)
                 (A) (A) (A) (A) (A) (A) (A) (A) (A) (A) (A) (A)
                 (A) (A) (A) (A) (A) (A) (A) (A) (A) (A) (A) (A)
                 (A) (A) (A) (A) (A) (A) (A) (A) (A) (A) (A) (A)
                 (A) (A) (A) (A) (A) (A) (A) (A) (A) (A) (A) (A)
                 (A) (A) (A) (A) (A) (A) (A) (A) (A) (A) (A) (A)
                 (A) (A) (A) (A) (A) (A) (A) (A) (A) (A) (A) (A)
                 (A) (A) (A) (A) (A) (A) (A) (A) (A) (A) (A) (A)
                 (A) (A) (A) (A) (A) (A) (A) (A) (A) (A) (A) (A)
                 (A) (A) (A) (A) (A) (A) (A) (A) (A) (A) (A) (A)
                 (A) (A) (A) (A) (A) (A) (A) (A) (A) (A) (A) (A)
                 (A) (A) (A) (A) (A) (A) (A) (A) (A) (A) (A) (A)
                 (A) (A) (A) (A) (A) (A) (A) (A) (A) (A) (A) (A)
                 (A) (A) (A) (A) (A) (A) (A) (A) (A) (A) (A) (A)
                 (A) (A) (A) (A) (A) (A) (A) (A) (A) (A)
 Beta  Orbitals:
       Occupied  (A) (A) (A) (A) (A) (A) (A) (A) (A) (A) (A) (A)
                 (A) (A) (A) (A) (A) (A) (A) (A) (A) (A) (A) (A)
                 (A) (A) (A) (A) (A) (A) (A) (A) (A) (A) (A) (A)
                 (A) (A) (A) (A) (A) (A) (A) (A) (A) (A) (A) (A)
                 (A) (A) (A) (A) (A) (A) (A) (A) (A) (A) (A) (A)
                 (A) (A) (A) (A) (A) (A) (A) (A) (A) (A) (A) (A)
                 (A) (A) (A) (A) (A) (A) (A) (A) (A) (A) (A) (A)
                 (A) (A) (A) (A) (A) (A) (A) (A) (A) (A) (A) (A)
                 (A) (A) (A) (A) (A) (A) (A) (A) (A) (A) (A) (A)
                 (A) (A) (A) (A) (A) (A) (A) (A) (A) (A) (A) (A)
                 (A) (A) (A) (A) (A) (A) (A) (A) (A) (A) (A) (A)
                 (A) (A) (A) (A) (A) (A) (A) (A) (A) (A) (A) (A)
                 (A) (A) (A) (A) (A) (A) (A) (A) (A) (A) (A) (A)
                 (A) (A) (A) (A) (A) (A) (A) (A) (A) (A) (A) (A)
                 (A) (A) (A) (A) (A) (A) (A) (A) (A) (A) (A) (A)
                 (A) (A) (A) (A) (A) (A) (A) (A) (A) (A) (A) (A)
                 (A) (A) (A) (A) (A) (A) (A) (A) (A) (A) (A) (A)
                 (A) (A) (A) (A) (A)
       Virtual   (A) (A) (A) (A) (A) (A) (A) (A) (A) (A) (A) (A)
                 (A) (A) (A) (A) (A) (A) (A) (A) (A) (A) (A) (A)
                 (A) (A) (A) (A) (A) (A) (A) (A) (A) (A) (A) (A)
                 (A) (A) (A) (A) (A) (A) (A) (A) (A) (A) (A) (A)
                 (A) (A) (A) (A) (A) (A) (A) (A) (A) (A) (A) (A)
                 (A) (A) (A) (A) (A) (A) (A) (A) (A) (A) (A) (A)
                 (A) (A) (A) (A) (A) (A) (A) (A) (A) (A) (A) (A)
                 (A) (A) (A) (A) (A) (A) (A) (A) (A) (A) (A) (A)
                 (A) (A) (A) (A) (A) (A) (A) (A) (A) (A) (A) (A)
                 (A) (A) (A) (A) (A) (A) (A) (A) (A) (A) (A) (A)
                 (A) (A) (A) (A) (A) (A) (A) (A) (A) (A) (A) (A)
                 (A) (A) (A) (A) (A) (A) (A) (A) (A) (A) (A) (A)
                 (A) (A) (A) (A) (A) (A) (A) (A) (A) (A) (A) (A)
                 (A) (A) (A) (A) (A) (A) (A) (A) (A) (A) (A) (A)
                 (A) (A) (A) (A) (A) (A) (A) (A) (A) (A) (A) (A)
                 (A) (A) (A) (A) (A) (A) (A) (A) (A) (A) (A) (A)
                 (A) (A) (A) (A) (A) (A) (A) (A) (A) (A) (A) (A)
                 (A) (A) (A) (A) (A) (A) (A) (A) (A) (A) (A) (A)
                 (A) (A) (A) (A) (A) (A) (A) (A) (A) (A) (A) (A)
                 (A) (A) (A) (A) (A) (A) (A) (A) (A) (A) (A) (A)
                 (A) (A) (A) (A) (A) (A) (A) (A) (A) (A) (A) (A)
                 (A) (A) (A) (A) (A) (A) (A) (A) (A) (A) (A) (A)
                 (A) (A) (A) (A) (A) (A) (A) (A) (A) (A) (A) (A)
                 (A) (A) (A) (A) (A) (A) (A) (A) (A) (A) (A) (A)
                 (A) (A) (A) (A) (A) (A) (A) (A) (A) (A) (A) (A)
                 (A) (A) (A) (A) (A) (A) (A) (A) (A) (A) (A) (A)
                 (A) (A) (A) (A) (A) (A) (A) (A) (A) (A) (A) (A)
                 (A) (A) (A) (A) (A) (A) (A) (A) (A) (A) (A) (A)
                 (A) (A) (A) (A) (A) (A) (A) (A) (A) (A) (A) (A)
                 (A) (A) (A) (A) (A) (A) (A) (A) (A) (A) (A) (A)
                 (A) (A) (A) (A) (A) (A) (A) (A) (A) (A) (A) (A)
                 (A) (A) (A) (A) (A) (A) (A) (A) (A) (A) (A) (A)
                 (A) (A) (A) (A) (A) (A) (A) (A) (A) (A) (A) (A)
                 (A) (A) (A) (A) (A) (A) (A) (A) (A) (A) (A) (A)
                 (A) (A) (A) (A) (A) (A) (A) (A) (A) (A) (A) (A)
                 (A) (A) (A) (A) (A) (A) (A) (A) (A) (A) (A) (A)
                 (A) (A) (A) (A) (A) (A) (A) (A) (A) (A) (A) (A)
                 (A) (A) (A) (A) (A) (A) (A) (A) (A) (A) (A) (A)
                 (A) (A) (A) (A) (A) (A) (A) (A) (A) (A) (A) (A)
                 (A) (A) (A) (A) (A) (A) (A) (A) (A) (A) (A) (A)
                 (A) (A) (A) (A) (A) (A) (A) (A) (A) (A) (A) (A)
                 (A) (A) (A) (A) (A) (A) (A) (A) (A) (A) (A) (A)
                 (A) (A) (A) (A) (A) (A) (A) (A) (A) (A) (A) (A)
                 (A) (A) (A) (A) (A) (A) (A) (A) (A) (A) (A) (A)
                 (A) (A) (A) (A) (A) (A) (A) (A) (A) (A) (A) (A)
                 (A) (A) (A) (A) (A) (A) (A) (A) (A) (A) (A) (A)
                 (A) (A) (A) (A) (A) (A) (A) (A) (A) (A) (A) (A)
                 (A) (A) (A) (A) (A) (A) (A) (A) (A) (A) (A) (A)
                 (A) (A) (A) (A) (A) (A) (A) (A) (A) (A) (A) (A)
                 (A) (A) (A) (A) (A) (A) (A) (A) (A) (A) (A) (A)
                 (A) (A) (A) (A) (A) (A) (A) (A) (A) (A) (A) (A)
                 (A) (A) (A) (A) (A) (A) (A) (A) (A) (A) (A)
 The electronic state is 2-A.
 Alpha  occ. eigenvalues -- -101.53077-101.51126 -66.13924 -66.13427 -66.13296
 Alpha  occ. eigenvalues --  -66.12648 -66.12183 -66.12101 -66.12052 -66.11856
 Alpha  occ. eigenvalues --  -66.11812 -66.11800 -66.11792 -66.11759 -66.11671
 Alpha  occ. eigenvalues --  -66.11539 -66.11502 -66.11497 -66.11362 -66.10752
 Alpha  occ. eigenvalues --  -66.10625 -66.09443 -66.09227 -66.09198  -9.44436
 Alpha  occ. eigenvalues --   -9.42483  -7.20655  -7.20037  -7.20034  -7.18534
 Alpha  occ. eigenvalues --   -7.18149  -7.18143  -5.31096  -5.30643  -5.30555
 Alpha  occ. eigenvalues --   -5.29974  -5.29587  -5.29323  -5.29303  -5.29284
 Alpha  occ. eigenvalues --   -5.29173  -5.29108  -5.29077  -5.29051  -5.29023
 Alpha  occ. eigenvalues --   -5.28907  -5.28827  -5.28808  -5.28750  -5.28115
 Alpha  occ. eigenvalues --   -5.27975  -5.26581  -5.26449  -5.26366  -3.67297
 Alpha  occ. eigenvalues --   -3.66830  -3.66712  -3.66692  -3.66583  -3.66255
 Alpha  occ. eigenvalues --   -3.66205  -3.66142  -3.66074  -3.65807  -3.65784
 Alpha  occ. eigenvalues --   -3.65693  -3.65428  -3.65415  -3.65381  -3.65305
 Alpha  occ. eigenvalues --   -3.65142  -3.65134  -3.65103  -3.65088  -3.65027
 Alpha  occ. eigenvalues --   -3.65013  -3.65009  -3.64977  -3.64975  -3.64971
 Alpha  occ. eigenvalues --   -3.64944  -3.64942  -3.64914  -3.64911  -3.64898
 Alpha  occ. eigenvalues --   -3.64886  -3.64883  -3.64853  -3.64818  -3.64807
 Alpha  occ. eigenvalues --   -3.64785  -3.64776  -3.64758  -3.64741  -3.64740
 Alpha  occ. eigenvalues --   -3.64705  -3.64666  -3.64647  -3.64641  -3.64621
 Alpha  occ. eigenvalues --   -3.64599  -3.64544  -3.64540  -3.64433  -3.64390
 Alpha  occ. eigenvalues --   -3.63951  -3.63919  -3.63851  -3.63815  -3.63773
 Alpha  occ. eigenvalues --   -3.63714  -3.62401  -3.62370  -3.62285  -3.62252
 Alpha  occ. eigenvalues --   -3.62211  -3.62195  -3.62157  -3.62148  -3.62048
 Alpha  occ. eigenvalues --   -0.80410  -0.77367  -0.65360  -0.64568  -0.63590
 Alpha  occ. eigenvalues --   -0.62504  -0.61541  -0.60028  -0.58783  -0.58536
 Alpha  occ. eigenvalues --   -0.58093  -0.57299  -0.56746  -0.56417  -0.55757
 Alpha  occ. eigenvalues --   -0.55471  -0.54750  -0.54379  -0.54122  -0.53102
 Alpha  occ. eigenvalues --   -0.52322  -0.51805  -0.49846  -0.48425  -0.47909
 Alpha  occ. eigenvalues --   -0.47524  -0.47222  -0.45322  -0.44761  -0.44197
 Alpha  occ. eigenvalues --   -0.44047  -0.43965  -0.42588  -0.41817  -0.41352
 Alpha  occ. eigenvalues --   -0.41085  -0.39400  -0.39228  -0.39092  -0.38892
 Alpha  occ. eigenvalues --   -0.38838  -0.38776  -0.38421  -0.38380  -0.38045
 Alpha  occ. eigenvalues --   -0.37587  -0.36897  -0.36751  -0.36547  -0.36388
 Alpha  occ. eigenvalues --   -0.35990  -0.35729  -0.35323  -0.34130  -0.33862
 Alpha  occ. eigenvalues --   -0.33333  -0.32916  -0.32312  -0.32102  -0.31608
 Alpha  occ. eigenvalues --   -0.30781  -0.30640  -0.30442  -0.30155  -0.29971
 Alpha  occ. eigenvalues --   -0.29887  -0.29713  -0.29651  -0.29586  -0.29466
 Alpha  occ. eigenvalues --   -0.29460  -0.29070  -0.28928  -0.28800  -0.28460
 Alpha  occ. eigenvalues --   -0.27999  -0.27835  -0.27733  -0.27571  -0.27192
 Alpha  occ. eigenvalues --   -0.26831  -0.26085  -0.25351  -0.24858  -0.23775
 Alpha  occ. eigenvalues --   -0.22087  -0.21904  -0.21173  -0.20936  -0.20566
 Alpha virt. eigenvalues --   -0.14784  -0.13415  -0.13047  -0.12521  -0.09662
 Alpha virt. eigenvalues --   -0.08766  -0.07513  -0.06740  -0.05860  -0.05446
 Alpha virt. eigenvalues --   -0.05026  -0.04646  -0.04389  -0.04306  -0.04086
 Alpha virt. eigenvalues --   -0.03943  -0.03182  -0.02935  -0.02850  -0.02669
 Alpha virt. eigenvalues --   -0.02156  -0.01885  -0.01700  -0.01429  -0.01288
 Alpha virt. eigenvalues --   -0.01079  -0.00744  -0.00704  -0.00292  -0.00219
 Alpha virt. eigenvalues --   -0.00161   0.00098   0.00178   0.00428   0.00565
 Alpha virt. eigenvalues --    0.00810   0.01251   0.01495   0.01609   0.01792
 Alpha virt. eigenvalues --    0.02154   0.02251   0.02491   0.02546   0.02645
 Alpha virt. eigenvalues --    0.02951   0.03076   0.03312   0.03343   0.03594
 Alpha virt. eigenvalues --    0.03709   0.03894   0.03993   0.04115   0.04182
 Alpha virt. eigenvalues --    0.04345   0.04388   0.04471   0.04696   0.04832
 Alpha virt. eigenvalues --    0.05050   0.05079   0.05132   0.05273   0.05464
 Alpha virt. eigenvalues --    0.05546   0.05696   0.05858   0.05992   0.06089
 Alpha virt. eigenvalues --    0.06286   0.06398   0.06554   0.06757   0.06933
 Alpha virt. eigenvalues --    0.07180   0.07357   0.07498   0.07695   0.07976
 Alpha virt. eigenvalues --    0.08049   0.08226   0.08468   0.08638   0.08875
 Alpha virt. eigenvalues --    0.09265   0.09366   0.09614   0.09882   0.09992
 Alpha virt. eigenvalues --    0.10142   0.10198   0.10662   0.10873   0.11181
 Alpha virt. eigenvalues --    0.11214   0.11575   0.11738   0.11863   0.12007
 Alpha virt. eigenvalues --    0.12155   0.12330   0.12439   0.12968   0.13258
 Alpha virt. eigenvalues --    0.13449   0.13781   0.14034   0.14164   0.14420
 Alpha virt. eigenvalues --    0.14563   0.14762   0.14863   0.15171   0.15450
 Alpha virt. eigenvalues --    0.15670   0.15739   0.16128   0.16362   0.16500
 Alpha virt. eigenvalues --    0.16605   0.16659   0.17130   0.17311   0.17335
 Alpha virt. eigenvalues --    0.17402   0.17583   0.17948   0.18126   0.18256
 Alpha virt. eigenvalues --    0.18608   0.18698   0.19126   0.19174   0.19790
 Alpha virt. eigenvalues --    0.19824   0.19912   0.19980   0.20451   0.20801
 Alpha virt. eigenvalues --    0.20913   0.21159   0.21543   0.21803   0.22160
 Alpha virt. eigenvalues --    0.22217   0.22359   0.22636   0.22837   0.23418
 Alpha virt. eigenvalues --    0.23649   0.23837   0.24267   0.24641   0.24779
 Alpha virt. eigenvalues --    0.25153   0.25298   0.25537   0.25803   0.25926
 Alpha virt. eigenvalues --    0.26223   0.26582   0.26742   0.27123   0.27357
 Alpha virt. eigenvalues --    0.27584   0.27951   0.28097   0.28198   0.28536
 Alpha virt. eigenvalues --    0.28648   0.28929   0.29167   0.29467   0.29608
 Alpha virt. eigenvalues --    0.29853   0.29932   0.30119   0.30354   0.30686
 Alpha virt. eigenvalues --    0.30991   0.31244   0.31669   0.31938   0.31985
 Alpha virt. eigenvalues --    0.32297   0.32897   0.32957   0.33251   0.33402
 Alpha virt. eigenvalues --    0.33811   0.33959   0.34348   0.34623   0.34697
 Alpha virt. eigenvalues --    0.35074   0.35299   0.35499   0.35723   0.35914
 Alpha virt. eigenvalues --    0.36112   0.36377   0.36553   0.36977   0.37004
 Alpha virt. eigenvalues --    0.37341   0.37651   0.37743   0.38236   0.38526
 Alpha virt. eigenvalues --    0.38739   0.38851   0.39053   0.39271   0.40120
 Alpha virt. eigenvalues --    0.40303   0.40914   0.41165   0.41375   0.42140
 Alpha virt. eigenvalues --    0.42742   0.43120   0.43287   0.43685   0.44041
 Alpha virt. eigenvalues --    0.44437   0.44894   0.45315   0.46068   0.46188
 Alpha virt. eigenvalues --    0.46473   0.46824   0.47250   0.47617   0.48525
 Alpha virt. eigenvalues --    0.48565   0.49175   0.49719   0.50008   0.50483
 Alpha virt. eigenvalues --    0.50705   0.51138   0.51517   0.51866   0.52216
 Alpha virt. eigenvalues --    0.52268   0.52806   0.52868   0.52897   0.53229
 Alpha virt. eigenvalues --    0.53462   0.53524   0.53982   0.54358   0.54681
 Alpha virt. eigenvalues --    0.54917   0.55186   0.55471   0.55885   0.56016
 Alpha virt. eigenvalues --    0.56465   0.56644   0.56877   0.57262   0.57447
 Alpha virt. eigenvalues --    0.57794   0.57871   0.58468   0.58565   0.58809
 Alpha virt. eigenvalues --    0.59390   0.59503   0.59809   0.60030   0.60125
 Alpha virt. eigenvalues --    0.60507   0.60848   0.60983   0.61108   0.61374
 Alpha virt. eigenvalues --    0.61618   0.61723   0.62020   0.62176   0.62678
 Alpha virt. eigenvalues --    0.62815   0.63261   0.63499   0.63924   0.64203
 Alpha virt. eigenvalues --    0.64258   0.64415   0.64994   0.65137   0.65365
 Alpha virt. eigenvalues --    0.65713   0.66159   0.66427   0.66580   0.67094
 Alpha virt. eigenvalues --    0.67259   0.67689   0.67970   0.68932   0.69016
 Alpha virt. eigenvalues --    0.69361   0.69488   0.69705   0.70034   0.70233
 Alpha virt. eigenvalues --    0.70377   0.70539   0.70895   0.71047   0.71430
 Alpha virt. eigenvalues --    0.71644   0.71868   0.72317   0.72717   0.73045
 Alpha virt. eigenvalues --    0.73287   0.73698   0.73720   0.74176   0.74423
 Alpha virt. eigenvalues --    0.74556   0.75079   0.75389   0.76031   0.76247
 Alpha virt. eigenvalues --    0.76761   0.77054   0.77420   0.77536   0.77922
 Alpha virt. eigenvalues --    0.77981   0.78222   0.78666   0.79094   0.79310
 Alpha virt. eigenvalues --    0.79475   0.79845   0.80303   0.81073   0.81481
 Alpha virt. eigenvalues --    0.81650   0.82220   0.83459   0.84529   0.85283
 Alpha virt. eigenvalues --    0.85623   0.86508   0.87619   0.88079   0.88483
 Alpha virt. eigenvalues --    0.88756   0.89525   0.89869   0.89928   0.90238
 Alpha virt. eigenvalues --    0.90537   0.91019   0.91376   0.91946   0.92423
 Alpha virt. eigenvalues --    0.92851   0.93128   0.93482   0.93850   0.94572
 Alpha virt. eigenvalues --    0.94802   0.95292   0.95397   0.95692   0.95964
 Alpha virt. eigenvalues --    0.96756   0.97226   0.97773   0.97870   0.98232
 Alpha virt. eigenvalues --    0.98522   0.98998   0.99554   0.99804   1.00273
 Alpha virt. eigenvalues --    1.00670   1.00881   1.01875   1.02173   1.03686
 Alpha virt. eigenvalues --    1.04664   1.05728   1.06339   1.07438   1.08398
 Alpha virt. eigenvalues --    1.08804   1.09081   1.09490   1.09733   1.10577
 Alpha virt. eigenvalues --    1.11397   1.11698   1.12154   1.13987   1.14735
 Alpha virt. eigenvalues --    1.14805   1.15172   1.16427   1.17319   1.18705
 Alpha virt. eigenvalues --    1.19137   1.19730   1.20165   1.20970   1.22223
 Alpha virt. eigenvalues --    1.22736   1.23136   1.23230   1.23606   1.25134
 Alpha virt. eigenvalues --    1.25432   1.26484   1.26584   1.26925   1.27126
 Alpha virt. eigenvalues --    1.27747   1.28096   1.28840   1.29868   1.30247
 Alpha virt. eigenvalues --    1.30486   1.30886   1.31249   1.32024   1.33228
 Alpha virt. eigenvalues --    1.33438   1.33810   1.34225   1.34493   1.35162
 Alpha virt. eigenvalues --    1.35686   1.36062   1.36254   1.36564   1.36893
 Alpha virt. eigenvalues --    1.37555   1.37765   1.37995   1.38471   1.38741
 Alpha virt. eigenvalues --    1.39047   1.39367   1.39870   1.40945   1.41006
 Alpha virt. eigenvalues --    1.41181   1.41920   1.42290   1.42529   1.43222
 Alpha virt. eigenvalues --    1.43554   1.43779   1.44474   1.44841   1.45388
 Alpha virt. eigenvalues --    1.45627   1.46639   1.46935   1.47276   1.48678
 Alpha virt. eigenvalues --    1.49023   1.49582   1.50015   1.50375   1.51486
 Alpha virt. eigenvalues --    1.52305   1.53069   1.53336   1.54166   1.54941
 Alpha virt. eigenvalues --    1.58116   1.59004   1.60126   1.63667   2.26146
 Alpha virt. eigenvalues --    2.30156   2.31536   2.33650   2.34144   2.36448
 Alpha virt. eigenvalues --    5.36475   5.37635   5.38839   5.39232   5.40361
 Alpha virt. eigenvalues --    5.40652   5.42887   5.43540   5.45007   5.46452
 Alpha virt. eigenvalues --    5.48170   5.48765   5.49558   5.50925   5.52324
 Alpha virt. eigenvalues --    5.54594   5.56211   5.56427   5.57326   5.58084
 Alpha virt. eigenvalues --    5.58682   5.61695   9.68796   9.71258  11.10080
 Alpha virt. eigenvalues --   11.21237  11.22104  11.22714  11.23558  11.25658
 Alpha virt. eigenvalues --   11.26471  11.26809  11.27393  11.27715  11.27905
 Alpha virt. eigenvalues --   11.28315  11.28600  11.28778  11.29418  11.29657
 Alpha virt. eigenvalues --   11.30125  11.30707  11.30858  11.31200  11.31460
 Alpha virt. eigenvalues --   11.31841  11.32436  11.32730  11.33025  11.33474
 Alpha virt. eigenvalues --   11.33578  11.33867  11.34433  11.34628  11.34740
 Alpha virt. eigenvalues --   11.35015  11.35434  11.35654  11.35941  11.36016
 Alpha virt. eigenvalues --   11.37589  11.38018  11.38261  11.38696  11.39534
 Alpha virt. eigenvalues --   11.40202  11.40402  11.40756  11.41810  11.42461
 Alpha virt. eigenvalues --   11.43236  11.43297  11.43526  11.44115  11.44532
 Alpha virt. eigenvalues --   11.45333  11.45974  11.46435  11.47209  11.47973
 Alpha virt. eigenvalues --   11.48303  11.48874  11.49282  11.51722  11.53046
 Alpha virt. eigenvalues --   11.54078  11.55196  11.56379  11.57344  11.58375
 Alpha virt. eigenvalues --   11.60457  11.88610  12.13707  12.56252  12.97018
 Alpha virt. eigenvalues --   13.18824  14.30512  14.31484  14.82964  15.16732
 Alpha virt. eigenvalues --   15.38508  15.50721  25.84017  25.90257  25.94337
 Alpha virt. eigenvalues --   26.00242  26.03461  26.12209 140.81905 140.82429
 Alpha virt. eigenvalues --  140.84107 140.84997 140.85979 140.86276 140.89205
 Alpha virt. eigenvalues --  140.89344 140.91348 140.92559 140.94444 140.95268
 Alpha virt. eigenvalues --  140.96232 140.97477 140.99239 141.01594 141.03128
 Alpha virt. eigenvalues --  141.03915 141.04733 141.05699 141.06410 141.10499
 Alpha virt. eigenvalues --  215.66702 215.70019
  Beta  occ. eigenvalues -- -101.53094-101.51211 -66.13919 -66.13426 -66.13290
  Beta  occ. eigenvalues --  -66.12646 -66.12222 -66.12178 -66.11911 -66.11855
  Beta  occ. eigenvalues --  -66.11813 -66.11801 -66.11758 -66.11756 -66.11671
  Beta  occ. eigenvalues --  -66.11533 -66.11479 -66.11353 -66.11207 -66.10754
  Beta  occ. eigenvalues --  -66.10625 -66.09441 -66.09234 -66.09198  -9.44453
  Beta  occ. eigenvalues --   -9.42566  -7.20711  -7.20055  -7.20034  -7.18806
  Beta  occ. eigenvalues --   -7.18193  -7.18188  -5.31090  -5.30642  -5.30550
  Beta  occ. eigenvalues --   -5.29972  -5.29582  -5.29452  -5.29304  -5.29173
  Beta  occ. eigenvalues --   -5.29148  -5.29108  -5.29076  -5.29050  -5.28962
  Beta  occ. eigenvalues --   -5.28888  -5.28817  -5.28801  -5.28431  -5.28117
  Beta  occ. eigenvalues --   -5.27975  -5.26579  -5.26458  -5.26366  -3.67285
  Beta  occ. eigenvalues --   -3.66829  -3.66706  -3.66670  -3.66578  -3.66254
  Beta  occ. eigenvalues --   -3.66202  -3.66141  -3.66070  -3.65805  -3.65782
  Beta  occ. eigenvalues --   -3.65692  -3.65423  -3.65415  -3.65373  -3.65297
  Beta  occ. eigenvalues --   -3.65205  -3.65150  -3.65146  -3.65143  -3.65103
  Beta  occ. eigenvalues --   -3.65014  -3.65009  -3.64975  -3.64970  -3.64949
  Beta  occ. eigenvalues --   -3.64915  -3.64910  -3.64883  -3.64883  -3.64874
  Beta  occ. eigenvalues --   -3.64851  -3.64831  -3.64807  -3.64785  -3.64775
  Beta  occ. eigenvalues --   -3.64757  -3.64741  -3.64715  -3.64674  -3.64655
  Beta  occ. eigenvalues --   -3.64636  -3.64625  -3.64604  -3.64578  -3.64554
  Beta  occ. eigenvalues --   -3.64535  -3.64532  -3.64238  -3.64193  -3.64028
  Beta  occ. eigenvalues --   -3.63953  -3.63924  -3.63852  -3.63815  -3.63774
  Beta  occ. eigenvalues --   -3.63714  -3.62399  -3.62368  -3.62292  -3.62250
  Beta  occ. eigenvalues --   -3.62215  -3.62196  -3.62174  -3.62149  -3.62048
  Beta  occ. eigenvalues --   -0.80555  -0.77849  -0.65280  -0.64534  -0.63574
  Beta  occ. eigenvalues --   -0.62521  -0.61494  -0.59959  -0.58652  -0.58444
  Beta  occ. eigenvalues --   -0.58007  -0.57117  -0.56763  -0.56323  -0.55740
  Beta  occ. eigenvalues --   -0.55425  -0.54731  -0.54366  -0.53755  -0.53094
  Beta  occ. eigenvalues --   -0.52262  -0.51752  -0.49714  -0.48337  -0.47771
  Beta  occ. eigenvalues --   -0.47502  -0.47216  -0.45290  -0.44519  -0.44153
  Beta  occ. eigenvalues --   -0.43940  -0.43788  -0.42413  -0.41614  -0.41298
  Beta  occ. eigenvalues --   -0.41053  -0.39396  -0.39227  -0.39084  -0.38876
  Beta  occ. eigenvalues --   -0.38802  -0.38771  -0.38393  -0.38352  -0.38034
  Beta  occ. eigenvalues --   -0.37563  -0.37273  -0.36742  -0.36547  -0.36384
  Beta  occ. eigenvalues --   -0.36006  -0.35593  -0.35403  -0.34099  -0.33816
  Beta  occ. eigenvalues --   -0.33348  -0.32852  -0.32309  -0.31821  -0.31494
  Beta  occ. eigenvalues --   -0.30896  -0.30583  -0.30276  -0.30229  -0.29947
  Beta  occ. eigenvalues --   -0.29923  -0.29764  -0.29620  -0.29525  -0.29470
  Beta  occ. eigenvalues --   -0.29380  -0.28885  -0.28855  -0.28515  -0.28435
  Beta  occ. eigenvalues --   -0.27978  -0.27837  -0.27720  -0.27573  -0.27277
  Beta  occ. eigenvalues --   -0.26792  -0.26150  -0.25627  -0.24899  -0.23708
  Beta  occ. eigenvalues --   -0.21801  -0.21206  -0.20889  -0.19577
  Beta virt. eigenvalues --   -0.14283  -0.13361  -0.13098  -0.12849  -0.12391
  Beta virt. eigenvalues --   -0.09758  -0.09102  -0.07573  -0.06893  -0.05843
  Beta virt. eigenvalues --   -0.05436  -0.04990  -0.04594  -0.04327  -0.04245
  Beta virt. eigenvalues --   -0.03989  -0.03795  -0.03046  -0.02921  -0.02752
  Beta virt. eigenvalues --   -0.02566  -0.02101  -0.01752  -0.01699  -0.01284
  Beta virt. eigenvalues --   -0.01251  -0.01046  -0.00681  -0.00636  -0.00314
  Beta virt. eigenvalues --   -0.00197   0.00052   0.00176   0.00323   0.00547
[...]
 03,-0.01952827,0.01878406,-0.01975277,0.00450996,-0.00454724,-0.003974
 98,0.02327198,0.01979882,-0.02376792,-0.00442403,-0.00507689,-0.003870
 21,-0.00000367,-0.00005021,0.00007412,0.00001025,0.00002375,-0.0000323
 6,0.00010161,-0.00001895,0.00015179,-0.00000195,-0.00010311,-0.0000824
 1,0.00052867,-0.00003524,0.00083283,-0.00000727,-0.00028642,-0.0002068
 0,0.00204601,-0.00281959,0.00266791,0.00044512,-0.00023351,-0.00021821
 ,-0.00431358,-0.03740743,0.06808211,0.,0.,0.,0.,0.,0.,0.,0.,0.,0.,0.,0
 .,0.,0.,0.,0.,0.,0.,0.,0.,0.,0.,0.,0.,0.,0.,0.,0.,0.,0.,0.,0.,0.,0.,0.
 ,0.,0.,0.,0.,0.,0.,0.,0.,0.,0.,0.,0.,0.,0.,0.,0.,0.,0.,0.,0.,0.,0.,0.,
 0.,0.,0.,0.,0.,0.,0.,0.,0.,0.,0.,0.,0.,0.,0.,0.,0.,0.,0.,0.,0.,0.,0.,0
 .,0.,0.,0.00002990,0.00000667,0.00002683,0.00004843,0.00000893,0.00003
 426,0.00012160,-0.00000159,-0.00002221,0.00050097,0.00068488,-0.000673
 09,-0.00032362,-0.00013670,0.00001212,-0.00000572,-0.00000011,-0.00000
 778,-0.00002997,-0.00002213,-0.00001155,-0.00001679,-0.00000030,0.0000
 1830,0.00017710,-0.00007314,-0.00001400,-0.00359483,0.00025603,-0.0019
 0469,-0.00367753,-0.00038142,0.00184901,0.00002679,-0.00003045,0.00000
 093,0.00003664,0.00002650,0.00002931,0.00003562,-0.00001214,0.00003465
 ,0.00002948,0.00005219,0.00003500,0.00006789,-0.00001774,-0.00000498,-
 0.00009304,0.00009984,0.00019299,0.00002287,-0.00015669,0.00007181,-0.
 00064036,0.00065858,0.00090783,0.00415391,0.00381261,-0.00116821,-0.05
 097678,-0.00208869,-0.03589061,0.00401467,-0.00398355,0.00117136,-0.05
 171364,0.00157534,0.03426692,0.00002557,0.00000720,-0.00001842,-0.0000
 2923,-0.00002119,-0.00001486,-0.00002378,0.00003672,0.00003819,0.00003
 169,-0.00007519,-0.00012001,0.00001164,0.00007305,0.00004891,-0.000043
 91,-0.00022896,-0.00038441,0.00012120,-0.00021292,-0.00003445,-0.00447
 825,-0.00037139,-0.00200661,-0.01874797,0.00075130,-0.00011300,0.13089
 082,0.,0.,0.,0.,0.,0.,0.,0.,0.,0.,0.,0.,0.,0.,0.,0.,0.,0.,0.,0.,0.,0.,
 0.,0.,0.,0.,0.,0.,0.,0.,0.,0.,0.,0.,0.,0.,0.,0.,0.,0.,0.,0.,0.,0.,0.,0
 .,0.,0.,0.,0.,0.,0.,0.,0.,0.,0.,0.,0.,0.,0.,0.,0.,0.,0.,0.,0.,0.,0.,0.
 ,0.,0.,0.,0.,0.,0.,0.,0.,0.,0.,0.,0.,0.,0.,0.,-0.00002049,-0.00000594,
 -0.00002722,-0.00002773,0.00000029,-0.00004938,0.00002181,0.00003141,-
 0.00013449,-0.00074159,0.00159067,0.00006597,0.00014442,-0.00000411,-0
 .00070918,0.00000374,0.00000067,0.00001009,0.00003054,0.00001169,0.000
 02118,0.00005313,-0.00001599,0.00004531,-0.00009700,0.00000110,0.00013
 693,0.00216458,-0.00241417,0.00079294,-0.00148687,-0.00302637,0.000198
 96,-0.00001776,0.00002331,-0.00000724,-0.00003248,-0.00002582,-0.00001
 507,-0.00000609,0.00002146,-0.00004023,-0.00001730,-0.00003657,-0.0000
 0257,-0.00006873,0.00007551,-0.00007394,0.00001379,-0.00006826,-0.0000
 6934,0.00031016,0.00043581,-0.00023847,0.00055105,-0.00020161,-0.00035
 047,0.00139878,0.00321800,0.00041577,-0.00159353,-0.01086272,-0.014022
 39,-0.00149065,0.00296501,-0.00076353,0.00256617,-0.01127116,-0.014621
 45,-0.00002261,-0.00001984,0.00003151,0.00001774,0.00002444,-0.0000066
 0,0.00003256,-0.00002268,0.00000278,-0.00001882,0.00001078,0.00004620,
 0.00011469,0.00001376,0.00017632,0.00009175,0.00004647,0.00009819,-0.0
 0005589,-0.00114828,-0.00004742,0.00115676,0.00119961,0.00122824,-0.00
 029808,-0.08301967,0.02046403,-0.00059240,0.09951795,0.,0.,0.,0.,0.,0.
 ,0.,0.,0.,0.,0.,0.,0.,0.,0.,0.,0.,0.,0.,0.,0.,0.,0.,0.,0.,0.,0.,0.,0.,
 0.,0.,0.,0.,0.,0.,0.,0.,0.,0.,0.,0.,0.,0.,0.,0.,0.,0.,0.,0.,0.,0.,0.,0
 .,0.,0.,0.,0.,0.,0.,0.,0.,0.,0.,0.,0.,0.,0.,0.,0.,0.,0.,0.,0.,0.,0.,0.
 ,0.,0.,0.,0.,0.,0.,0.,0.,-0.00000073,0.00000459,0.00002224,-0.00002900
 ,-0.00001563,0.00007732,-0.00004553,-0.00011960,0.00020673,0.00044182,
 -0.00075872,-0.00083879,0.00005172,-0.00127442,0.00151798,-0.00000054,
 -0.00000029,-0.00001582,-0.00003304,0.00000836,-0.00003744,-0.00005201
 ,0.00001207,-0.00014250,0.00025124,0.00008810,-0.00053886,-0.00522853,
 0.00284234,-0.00239718,0.00469284,0.00305785,-0.00208961,0.00000121,-0
 .00000993,0.00001457,0.00001955,0.00000876,-0.00003292,-0.00004772,-0.
 00003939,0.00002778,0.00003159,-0.00001834,-0.00009998,-0.00000923,-0.
 00012489,0.00017925,0.00021121,-0.00014581,-0.00025692,-0.00024019,-0.
 00041474,0.00042936,0.00048801,-0.00016012,-0.00167784,-0.00062052,-0.
 00518671,0.00111158,-0.02713464,-0.01086274,-0.02817111,0.00074780,-0.
 00535728,0.00167360,0.02921520,-0.00986150,-0.03041925,0.00000762,0.00
 004156,-0.00004805,0.00000728,-0.00001243,0.00006679,-0.00004196,-0.00
 000776,-0.00002161,0.00004760,0.00013659,0.00015862,-0.00007831,-0.000
 14123,-0.00038566,0.00043314,0.00044423,0.00059053,-0.00043395,0.00108
 801,-0.00048029,0.00063865,0.00108160,0.00412219,0.00072291,0.01253267
 ,-0.00071016,-0.00164783,0.01312305,0.05614677,0.,0.,0.,0.,0.,0.,0.,0.
 ,0.,0.,0.,0.,0.,0.,0.,0.,0.,0.,0.,0.,0.,0.,0.,0.,0.,0.,0.,0.,0.,0.,0.,
 0.,0.,0.,0.,0.,0.,0.,0.,0.,0.,0.,0.,0.,0.,0.,0.,0.,0.,0.,0.,0.,0.,0.,0
 .,0.,0.,0.,0.,0.,0.,0.,0.,0.,0.,0.,0.,0.,0.,0.,0.,0.,0.,0.,0.,0.,0.,0.
 ,0.,0.,0.,0.,0.,0.,0.00000172,0.00000197,-0.00002853,-0.00019089,0.000
 15596,0.00015935,-0.00003555,0.00017339,-0.00009471,0.00001897,-0.0001
 6587,0.00010884,-0.00017806,-0.00018364,-0.00014258,-0.00000029,0.0000
 0019,0.00001833,-0.00005529,-0.00000337,0.00005031,0.00052854,-0.00007
 850,0.00022802,0.00083480,-0.00000948,0.00001651,0.00052687,0.00004534
 ,-0.00020490,-0.00004737,-0.00002416,-0.00004024,-0.00000243,0.0000154
 6,0.00000489,-0.00000221,-0.00000664,-0.00000194,0.00000175,-0.0000060
 7,-0.00003097,-0.00000988,-0.00001643,0.00000320,-0.00052134,0.0007357
 1,0.00037125,-0.00001527,-0.00020925,-0.00013306,-0.00132771,0.0000729
 3,0.00000308,-0.00003038,-0.00007194,0.00004272,-0.00041706,-0.0007574
 9,-0.00031825,0.00022571,0.00014829,0.00007944,-0.00001732,-0.00002592
 ,-0.00002170,-0.00003107,0.00000686,-0.00002104,-0.00000985,-0.0000174
 6,0.00001580,0.00001621,0.00001015,-0.00001235,-0.00003355,-0.00005040
 ,-0.00008073,-0.00000657,0.00008535,0.00003760,0.00459054,0.00265558,0
 .00403573,0.00006862,-0.00116319,0.00042872,0.00471284,-0.00244724,-0.
 00383254,0.00001203,0.00114001,-0.00055935,-0.00018296,0.00007607,-0.0
 0016105,-0.00001216,-0.00010622,0.00010216,-0.00006579,0.,0.,0.,0.,0.,
 0.,0.,0.,0.,0.,0.,0.,0.,0.,0.,0.,0.,0.,0.,0.,0.,0.,0.,0.,0.,0.,0.,0.,0
 .,0.,0.,0.,0.,0.,0.,0.,0.,0.,0.,0.,0.,0.,0.,0.,0.,0.,0.,0.,0.,0.,0.,0.
 ,0.,0.,0.,0.,0.,0.,0.,0.,0.,0.,0.,0.,0.,0.,0.,0.,0.,0.,0.,0.,0.,0.,0.,
 0.,0.,0.,0.,0.,0.,0.,0.,0.,-0.00000378,-0.00000016,-0.00000499,-0.0000
 7280,0.00008070,0.00002733,0.00006535,-0.00003453,-0.00003541,-0.00006
 260,-0.00004823,-0.00003584,0.00007046,0.00008033,0.00002721,-0.000002
 60,-0.00000034,0.00000683,-0.00000849,0.00000562,0.00001110,0.00024580
 ,-0.00009274,0.00008258,-0.00001381,0.00011387,-0.00001367,-0.00026102
 ,-0.00003535,0.00006459,0.00001285,0.00000818,0.00000884,0.00000097,0.
 00000092,-0.00000188,-0.00000838,-0.00000573,0.00000279,0.00000567,0.0
 0000240,-0.00002409,-0.00000292,-0.00000291,0.00001872,-0.00034753,0.0
 0021995,0.00022955,-0.00001947,-0.00009875,0.00004793,0.00001022,-0.00
 015584,-0.00039070,0.00001546,0.00006634,0.00002337,0.00024180,0.00018
 558,0.00022908,-0.00002687,-0.00010162,0.00011089,0.00000592,-0.000002
 88,0.00001330,0.00003368,-0.00000453,0.00003272,-0.00000508,-0.0000186
 8,0.00000868,0.00000280,0.00001157,-0.00001185,-0.00003876,0.00002693,
 -0.00000115,-0.00000526,-0.00003616,0.00001188,0.00148642,-0.00079655,
 0.00038567,-0.00004984,0.00019361,-0.00016026,-0.00161273,-0.00077352,
 0.00043876,0.00005560,0.00020896,-0.00018498,0.00012461,-0.00009508,0.
 00007079,0.00000556,0.00007099,-0.00009322,0.00003366,0.00195214,0.,0.
 ,0.,0.,0.,0.,0.,0.,0.,0.,0.,0.,0.,0.,0.,0.,0.,0.,0.,0.,0.,0.,0.,0.,0.,
 0.,0.,0.,0.,0.,0.,0.,0.,0.,0.,0.,0.,0.,0.,0.,0.,0.,0.,0.,0.,0.,0.,0.,0
 .,0.,0.,0.,0.,0.,0.,0.,0.,0.,0.,0.,0.,0.,0.,0.,0.,0.,0.,0.,0.,0.,0.,0.
 ,0.,0.,0.,0.,0.,0.,0.,0.,0.,0.,0.,0.,0.00014633,0.00003312,0.00016725,
 0.00055564,-0.00021781,-0.00010363,0.00023662,0.00004888,0.00030902,-0
 .00025309,0.00018691,0.00025109,-0.00047661,-0.00023161,0.00000852,-0.
 00001133,0.00000073,-0.00009579,-0.00008851,-0.00009932,-0.00018068,-0
 .00124006,0.00027231,-0.00025159,0.00008747,0.00024770,0.00094482,0.00
 115319,-0.00009054,-0.00024900,-0.00002875,-0.00001523,-0.00015070,0.0
 0011906,-0.00019656,0.00001463,0.00017222,0.00013246,0.00010049,0.0001
 0606,-0.00007141,0.00025605,0.00017258,0.00023357,-0.00006075,0.001335
 74,-0.00127804,-0.00070667,0.00043271,0.00045559,0.00017257,0.00015807
 ,0.00058547,0.00094703,-0.00014429,0.00059832,-0.00051898,-0.00085523,
 -0.00103994,-0.00047384,-0.00047020,0.00038749,-0.00020141,-0.00023707
 ,-0.00034206,-0.00003975,-0.00034037,0.00020625,0.00008172,0.00013547,
 0.00011666,-0.00017915,-0.00012868,-0.00010419,0.00002111,-0.00004009,
 0.00013833,0.00004498,0.00033512,-0.00025213,-0.00020992,-0.00574607,-
 0.00233414,-0.00259728,0.00007073,0.00077634,0.00066069,0.00564491,-0.
 00142043,-0.00219473,-0.00006265,0.00020471,0.00057716,-0.00048527,0.0
 0039989,-0.00038999,0.00012549,-0.00027875,0.00010515,-0.00012194,-0.0
 0180421,0.07080279,0.,0.,0.,0.,0.,0.,0.,0.,0.,0.,0.,0.,0.,0.,0.,0.,0.,
 0.,0.,0.,0.,0.,0.,0.,0.,0.,0.,0.,0.,0.,0.,0.,0.,0.,0.,0.,0.,0.,0.,0.,0
 .,0.,0.,0.,0.,0.,0.,0.,0.,0.,0.,0.,0.,0.,0.,0.,0.,0.,0.,0.,0.,0.,0.,0.
 ,0.,0.,0.,0.,0.,0.,0.,0.,0.,0.,0.,0.,0.,0.,0.,0.,0.,0.,0.,0.,0.0000126
 1,0.00000600,-0.00001369,-0.00011901,0.00012861,0.00009225,-0.00002370
 ,-0.00000141,-0.00003606,-0.00001499,0.00000424,0.00005112,-0.00012048
 ,-0.00013588,-0.00008398,-0.00000040,0.00000074,0.00001217,-0.00003605
 ,-0.00001594,0.00003730,0.00037873,-0.00015069,0.00024150,0.00013673,0
 .00001641,-0.00000023,0.00039796,0.00010879,-0.00024154,-0.00002110,-0
 .00002610,-0.00004059,0.00000818,0.00000154,0.00000412,0.00001158,0.00
 000549,0.00001217,0.00001879,0.00002438,-0.00000378,0.00001928,-0.0000
 0128,0.00000467,-0.00033860,0.00070100,0.00041495,0.00026270,-0.000492
 48,-0.00011557,-0.00067289,-0.00004241,-0.00002938,-0.00051512,-0.0000
 3018,0.00000953,-0.00026718,-0.00071972,-0.00037969,0.00045027,0.00047
 467,0.00007699,0.00001019,-0.00003690,-0.00001673,-0.00000362,0.000002
 79,-0.00004084,0.00000245,-0.00001044,0.00000397,-0.00000024,-0.000000
 12,-0.00001907,-0.00003006,-0.00006411,-0.00008041,0.00003033,0.000020
 11,-0.00000888,0.00249151,-0.00150823,0.00256301,-0.00037822,-0.000296
 66,-0.00045539,0.00265178,0.00182306,-0.00244283,-0.00042366,0.0002424
 8,0.00038437,-0.00011457,0.00007501,-0.00009968,0.00000591,-0.00008922
 ,0.00011451,-0.00020054,0.00006754,0.00009814,0.00352666,0.,0.,0.,0.,0
 .,0.,0.,0.,0.,0.,0.,0.,0.,0.,0.,0.,0.,0.,0.,0.,0.,0.,0.,0.,0.,0.,0.,0.
 ,0.,0.,0.,0.,0.,0.,0.,0.,0.,0.,0.,0.,0.,0.,0.,0.,0.,0.,0.,0.,0.,0.,0.,
 0.,0.,0.,0.,0.,0.,0.,0.,0.,0.,0.,0.,0.,0.,0.,0.,0.,0.,0.,0.,0.,0.,0.,0
 .,0.,0.,0.,0.,0.,0.,0.,0.,0.,0.00009168,0.00000236,0.00012093,0.000391
 97,-0.00015576,-0.00000940,0.00024439,-0.00023589,0.00019483,-0.000220
 11,-0.00016026,0.00017123,-0.00034265,-0.00010746,0.00006341,-0.000017
 21,0.00000580,-0.00005735,-0.00007281,-0.00004831,-0.00011589,-0.00085
 165,0.00031982,-0.00029320,-0.00001193,0.00064406,-0.00008975,0.000815
 45,-0.00001145,-0.00026829,0.00002675,-0.00000012,-0.00008653,0.000082
 05,-0.00015957,0.00001730,0.00009977,0.00006612,0.00007441,0.00009990,
 -0.00013285,0.00013356,0.00008943,0.00013929,-0.00003166,0.00116001,-0
 .00099730,-0.00060618,0.00066346,0.00010746,0.00001902,0.00008686,-0.0
 0231822,-0.00061649,0.00000546,-0.00031914,-0.00020606,-0.00077618,-0.
 00085554,-0.00039219,-0.00095762,0.00011124,-0.00019641,-0.00018349,-0
 .00034852,-0.00002345,-0.00020125,0.00013405,0.00008059,0.00008152,0.0
 0004427,-0.00009104,-0.00006734,-0.00003671,-0.00000900,-0.00008383,0.
 00020184,0.00012840,0.00033292,-0.00019055,-0.00008528,-0.00157157,0.0
 0097973,0.00019861,-0.00032555,-0.00000445,0.00040782,0.00142062,0.001
 22766,0.00046453,0.00041181,-0.00025846,0.00044166,-0.00025974,0.00018
 366,-0.00014435,0.00006544,-0.00005908,0.00006138,0.00008259,0.0046517
 6,0.00506625,0.00138361,0.09361985,0.,0.,0.,0.,0.,0.,0.,0.,0.,0.,0.,0.
 ,0.,0.,0.,0.,0.,0.,0.,0.,0.,0.,0.,0.,0.,0.,0.,0.,0.,0.,0.,0.,0.,0.,0.,
 0.,0.,0.,0.,0.,0.,0.,0.,0.,0.,0.,0.,0.,0.,0.,0.,0.,0.,0.,0.,0.,0.,0.,0
 .,0.,0.,0.,0.,0.,0.,0.,0.,0.,0.,0.,0.,0.,0.,0.,0.,0.,0.,0.,0.,0.,0.,0.
 ,0.,0.,-0.00000499,0.00000771,-0.00001720,-0.00011118,0.00011154,0.000
 05775,0.00010103,-0.00003056,-0.00006123,-0.00008515,-0.00005760,-0.00
 004356,0.00009746,0.00010538,0.00003270,0.00000234,-0.00000164,0.00000
 947,-0.00000783,0.00000083,0.00003018,0.00042663,-0.00015916,0.0001944
 6,-0.00002024,-0.00013997,0.00036641,-0.00042493,-0.00006037,0.0001579
 1,0.00000263,0.00000181,0.00002057,-0.00000365,0.00001670,-0.00000114,
 -0.00000807,-0.00000274,0.00000010,-0.00001421,0.00002993,-0.00000422,
 0.00000826,-0.00001230,0.00001973,-0.00038101,0.00060755,0.00041177,0.
 00006788,-0.00041162,0.00007496,-0.00001816,0.00124197,0.00013431,0.00
 003309,-0.00028406,-0.00010436,0.00024873,0.00054770,0.00037244,-0.000
 15305,-0.00039086,0.00017166,0.00001403,0.00005713,0.00002401,0.000041
 17,-0.00000200,0.00004062,-0.00000643,-0.00000751,0.00000269,0.0000017
 1,0.00000335,-0.00001149,-0.00003166,-0.00003976,-0.00006322,-0.000044
 83,-0.00000639,-0.00003037,0.00174316,-0.00201296,0.00067049,-0.000364
 65,0.00033830,-0.00061904,-0.00176292,-0.00231423,0.00054721,0.0003760
 2,0.00050461,-0.00065487,0.00013866,-0.00011669,0.00004113,0.00002709,
 0.00006840,-0.00009044,0.00002711,0.00199322,0.00162091,-0.00020048,-0
 .01192903,0.00721209,0.,0.,0.,0.,0.,0.,0.,0.,0.,0.,0.,0.,0.,0.,0.,0.,0
 .,0.,0.,0.,0.,0.,0.,0.,0.,0.,0.,0.,0.,0.,0.,0.,0.,0.,0.,0.,0.,0.,0.,0.
 ,0.,0.,0.,0.,0.,0.,0.,0.,0.,0.,0.,0.,0.,0.,0.,0.,0.,0.,0.,0.,0.,0.,0.,
 0.,0.,0.,0.,0.,0.,0.,0.,0.,0.,0.,0.,0.,0.,0.,0.,0.,0.,0.,0.,0.,-0.0000
 3131,0.00001628,0.00004331,0.00045538,-0.00054120,-0.00005531,0.000050
 83,-0.00052834,-0.00032696,0.00011541,0.00044302,0.00034190,0.00030197
 ,0.00039025,0.00001875,0.00000423,0.00000119,-0.00003190,0.00007806,0.
 00001323,-0.00003814,-0.00102525,0.00088583,-0.00053248,-0.00236796,0.
 00006330,0.00000481,-0.00072650,-0.00049979,0.00040950,0.00004892,0.00
 005971,0.00003671,-0.00001824,0.00001289,-0.00002200,-0.00003002,-0.00
 001748,-0.00002119,-0.00005044,0.00001343,0.00000539,-0.00006640,-0.00
 002093,-0.00002787,0.00149953,-0.00202187,-0.00222923,-0.00040621,0.00
 065620,-0.00020315,0.00377771,0.00007677,0.00004610,0.00040653,-0.0000
 1577,0.00008008,0.00050477,0.00157510,0.00170841,-0.00058738,-0.000780
 27,0.00027292,-0.00002345,-0.00000645,0.00011781,-0.00004666,0.0000013
 0,0.00011380,0.00000242,0.00000206,0.00001153,0.00000458,0.00000241,0.
 00002882,0.00017259,0.00001844,0.00033494,-0.00002960,-0.00008756,-0.0
 0000236,-0.01751689,0.00184678,-0.00979080,0.00074480,-0.00222900,0.00
 025265,-0.01841242,-0.00085772,0.01093332,0.00099695,0.00214842,-0.000
 34315,0.00041985,-0.00010210,0.00019406,-0.00002434,0.00017642,-0.0002
 1613,-0.00896704,0.00004013,-0.00009466,-0.00754235,-0.00154272,0.0002
 7382,0.04981806,0.,0.,0.,0.,0.,0.,0.,0.,0.,0.,0.,0.,0.,0.,0.,0.,0.,0.,
 0.,0.,0.,0.,0.,0.,0.,0.,0.,0.,0.,0.,0.,0.,0.,0.,0.,0.,0.,0.,0.,0.,0.,0
 .,0.,0.,0.,0.,0.,0.,0.,0.,0.,0.,0.,0.,0.,0.,0.,0.,0.,0.,0.,0.,0.,0.,0.
 ,0.,0.,0.,0.,0.,0.,0.,0.,0.,0.,0.,0.,0.,0.,0.,0.,0.,0.,0.,-0.00008502,
 0.00000323,-0.00011854,-0.00045075,0.00019611,0.00003723,-0.00014141,0
 .00016831,-0.00007557,0.00013107,0.00009023,-0.00005733,0.00039326,0.0
 0017613,-0.00002098,0.00001908,-0.00000240,0.00005583,0.00006952,0.000
 03092,0.00011905,0.00097667,-0.00033678,0.00047187,0.00001060,-0.00066
 196,0.00037626,-0.00089217,-0.00013717,0.00046717,-0.00003264,0.000037
 81,0.00010404,-0.00007749,0.00016234,-0.00003469,-0.00010152,-0.000068
 39,-0.00005581,-0.00005394,0.00018404,-0.00016856,-0.00010394,-0.00012
 411,0.00004558,-0.00169420,0.00112041,0.00032509,-0.00004369,-0.000594
 62,-0.00022697,-0.00006937,0.00385353,0.00046246,0.00008614,-0.0012682
 7,-0.00041114,0.00122372,0.00105528,0.00021222,0.00009064,-0.00056717,
 -0.00011663,0.00014377,0.00035589,-0.00007359,0.00019696,-0.00015190,-
 0.00003586,-0.00006914,-0.00006760,0.00012760,0.00006521,0.00004475,-0
 .00002496,0.00015083,-0.00020683,-0.00004792,-0.00019071,0.00010864,-0
 .00001155,-0.00253813,-0.00450686,-0.00290945,-0.00077349,-0.00181517,
 -0.00224990,0.00375097,-0.00539750,-0.00439431,0.00057949,-0.00138423,
 -0.00188901,0.00018595,-0.00016730,0.00028428,-0.00012113,0.00009056,-
 0.00017351,-0.00009259,-0.00570269,-0.00026172,-0.00148094,-0.09775725
 ,0.01335891,0.00082360,0.11488057,0.,0.,0.,0.,0.,0.,0.,0.,0.,0.,0.,0.,
 0.,0.,0.,0.,0.,0.,0.,0.,0.,0.,0.,0.,0.,0.,0.,0.,0.,0.,0.,0.,0.,0.,0.,0
 .,0.,0.,0.,0.,0.,0.,0.,0.,0.,0.,0.,0.,0.,0.,0.,0.,0.,0.,0.,0.,0.,0.,0.
 ,0.,0.,0.,0.,0.,0.,0.,0.,0.,0.,0.,0.,0.,0.,0.,0.,0.,0.,0.,0.,0.,0.,0.,
 0.,0.,-0.00016448,-0.00003016,-0.00014887,-0.00051947,0.00030007,0.000
 04180,0.00003265,-0.00008714,-0.00017392,-0.00007504,-0.00013536,-0.00
 017515,0.00049206,0.00029074,-0.00000362,0.00001046,0.00000183,0.00007
 654,0.00008983,0.00008990,0.00009379,0.00081969,-0.00013734,0.00012592
 ,0.00000763,0.00023730,-0.00091523,-0.00078663,0.00010114,0.00012265,0
 .00003111,0.00007538,0.00007828,-0.00012721,0.00022373,-0.00008099,-0.
 00020190,-0.00014170,-0.00010774,0.00005798,0.00015823,-0.00051172,-0.
 00024540,-0.00019293,0.00004983,-0.00196211,0.00134936,-0.00098758,-0.
 00088814,0.00109752,-0.00050586,-0.00003485,-0.00456804,-0.01664259,0.
 00001362,0.00032450,-0.00052885,0.00093985,0.00138730,-0.00100641,0.00
 108694,0.00104911,-0.00035639,0.00024608,0.00034176,-0.00026826,0.0003
 3854,-0.00027605,-0.00014807,-0.00011063,-0.00020261,0.00032318,0.0001
 3924,0.00013253,-0.00003204,0.00032601,-0.00014560,0.00044713,-0.00020
 914,0.00011285,0.00027717,-0.00460408,0.00055789,-0.00982319,0.0016013
 1,-0.00287265,0.00143264,0.00617674,-0.00016891,-0.01126102,-0.0017835
 4,-0.00278420,0.00179134,0.00027191,-0.00040311,0.00101331,-0.00022181
 ,0.00026056,-0.00013134,0.00003973,-0.00106037,-0.06635176,0.00021009,
 0.00992184,-0.01097684,-0.00117629,-0.00552787,0.11254732\\0.,0.,0.,0.
 ,0.,0.,0.,0.,0.,0.,0.,0.,0.,0.,0.,0.,0.,0.,0.,0.,0.,0.,0.,0.,0.,0.,0.,
 0.,0.,0.,0.,0.,0.,0.,0.,0.,0.,0.,0.,0.,0.,0.,0.,0.,0.,0.,0.,0.,0.,0.,0
 .,0.,0.,0.,0.,0.,0.,0.,0.,0.,0.,0.,0.,0.,0.,0.,0.,0.,0.,0.,0.,0.,0.,0.
 ,0.,0.,0.,0.,0.,0.,0.,0.,0.,0.,-0.00000633,-0.00000549,-0.00020421,-0.
 00000054,0.00000726,-0.00019873,0.00000296,-0.00001381,-0.00020982,0.0
 0000171,0.00000664,-0.00021124,0.00001255,0.00000617,-0.00020364,-0.00
 002026,-0.00002985,0.00029661,0.00000283,0.00000252,0.00021768,-0.0000
 0188,0.00002413,0.00021530,-0.00000273,0.00002847,0.00024935,-0.000003
 92,-0.00003750,0.00021293,0.00002555,-0.00002529,0.00030331,0.00000006
 ,-0.00004400,-0.00022540,-0.00002318,0.00006899,-0.00024348,-0.0000167
 2,-0.00002620,-0.00022367,0.00002885,0.00002273,-0.00022480,0.00001251
 ,-0.00003653,-0.00023733,-0.00002492,0.00001906,-0.00022980,0.00000727
 ,-0.00002023,-0.00018532,-0.00001150,0.00001926,-0.00023941,0.00002171
 ,-0.00002532,-0.00022994,-0.00002509,0.00005518,-0.00023112,0.00002562
 ,-0.00004313,-0.00022816,0.00000858,0.00007628,-0.00024683,-0.00001195
 ,-0.00015875,-0.00013316,0.00000191,0.00016353,-0.00018099,-0.00000239
 ,-0.00013662,-0.00017988,0.00000661,0.00013447,-0.00013591,0.00009192,
 -0.00012261,-0.00008141,0.00000643,0.00014909,-0.00015966,-0.00006041,
 -0.00011648,-0.00009194,-0.00000193,0.00015538,-0.00015039,-0.00000571
 ,-0.00020561,-0.00012882,0.00000043,0.00019737,-0.00017703,0.00000378,
 -0.00000103,-0.00027983,-0.00000028,-0.00036526,0.00005116,-0.00002080
 ,0.00029156,0.00003568\\\@


 QED = W**5 (WHICH WAS WHAT WE WANTED)
 Job cpu time:       1 days 13 hours 49 minutes 34.7 seconds.
 Elapsed time:       0 days  3 hours 36 minutes 24.5 seconds.
 File lengths (MBytes):  RWF=  10995 Int=      0 D2E=      0 Chk=     60 Scr=      1
 Normal termination of Gaussian 16 at Sat Feb 19 15:00:09 2022.
