 Entering Gaussian System, Link 0=g16
 Input=f2_m2.gjf
 Output=f2_m2.log
 Initial command:
 /shared/ucl/apps/gaussian/g16-a03/pgi-2016.5/g16/l1.exe "/tmpdir/job/225262.undefined/ucanssc/gaussian.1008f49e/Gau-157454.inp" -scrdir="/tmpdir/job/225262.undefined/ucanssc/gaussian.1008f49e/"
 Entering Link 1 = /shared/ucl/apps/gaussian/g16-a03/pgi-2016.5/g16/l1.exe PID=    157455.
  
 Copyright (c) 1988,1990,1992,1993,1995,1998,2003,2009,2016,
            Gaussian, Inc.  All Rights Reserved.
  
 This is part of the Gaussian(R) 16 program.  It is based on
 the Gaussian(R) 09 system (copyright 2009, Gaussian, Inc.),
 the Gaussian(R) 03 system (copyright 2003, Gaussian, Inc.),
 the Gaussian(R) 98 system (copyright 1998, Gaussian, Inc.),
 the Gaussian(R) 94 system (copyright 1995, Gaussian, Inc.),
 the Gaussian 92(TM) system (copyright 1992, Gaussian, Inc.),
 the Gaussian 90(TM) system (copyright 1990, Gaussian, Inc.),
 the Gaussian 88(TM) system (copyright 1988, Gaussian, Inc.),
 the Gaussian 86(TM) system (copyright 1986, Carnegie Mellon
 University), and the Gaussian 82(TM) system (copyright 1983,
 Carnegie Mellon University). Gaussian is a federally registered
 trademark of Gaussian, Inc.
  
 This software contains proprietary and confidential information,
 including trade secrets, belonging to Gaussian, Inc.
  
 This software is provided under written license and may be
 used, copied, transmitted, or stored only in accord with that
 written license.
  
 The following legend is applicable only to US Government
 contracts under FAR:
  
                    RESTRICTED RIGHTS LEGEND
  
 Use, reproduction and disclosure by the US Government is
 subject to restrictions as set forth in subparagraphs (a)
 and (c) of the Commercial Computer Software - Restricted
 Rights clause in FAR 52.227-19.
  
 Gaussian, Inc.
 340 Quinnipiac St., Bldg. 40, Wallingford CT 06492
  
  
 ---------------------------------------------------------------
 Warning -- This program may not be used in any manner that
 competes with the business of Gaussian, Inc. or will provide
 assistance to any competitor of Gaussian, Inc.  The licensee
 of this program is prohibited from giving any competitor of
 Gaussian, Inc. access to this program.  By using this program,
 the user acknowledges that Gaussian, Inc. is engaged in the
 business of creating and licensing software in the field of
 computational chemistry and represents and warrants to the
 licensee that it is not a competitor of Gaussian, Inc. and that
 it will not use this program in any manner prohibited above.
 ---------------------------------------------------------------
  

 Cite this work as:
 Gaussian 16, Revision A.03,
 M. J. Frisch, G. W. Trucks, H. B. Schlegel, G. E. Scuseria, 
 M. A. Robb, J. R. Cheeseman, G. Scalmani, V. Barone, 
 G. A. Petersson, H. Nakatsuji, X. Li, M. Caricato, A. V. Marenich, 
 J. Bloino, B. G. Janesko, R. Gomperts, B. Mennucci, H. P. Hratchian, 
 J. V. Ortiz, A. F. Izmaylov, J. L. Sonnenberg, D. Williams-Young, 
 F. Ding, F. Lipparini, F. Egidi, J. Goings, B. Peng, A. Petrone, 
 T. Henderson, D. Ranasinghe, V. G. Zakrzewski, J. Gao, N. Rega, 
 G. Zheng, W. Liang, M. Hada, M. Ehara, K. Toyota, R. Fukuda, 
 J. Hasegawa, M. Ishida, T. Nakajima, Y. Honda, O. Kitao, H. Nakai, 
 T. Vreven, K. Throssell, J. A. Montgomery, Jr., J. E. Peralta, 
 F. Ogliaro, M. J. Bearpark, J. J. Heyd, E. N. Brothers, K. N. Kudin, 
 V. N. Staroverov, T. A. Keith, R. Kobayashi, J. Normand, 
 K. Raghavachari, A. P. Rendell, J. C. Burant, S. S. Iyengar, 
 J. Tomasi, M. Cossi, J. M. Millam, M. Klene, C. Adamo, R. Cammi, 
 J. W. Ochterski, R. L. Martin, K. Morokuma, O. Farkas, 
 J. B. Foresman, and D. J. Fox, Gaussian, Inc., Wallingford CT, 2016.
 
 ******************************************
 Gaussian 16:  ES64L-G16RevA.03 25-Dec-2016
                16-Feb-2022 
 ******************************************
 %chk=f2_m2.chk
 %NProcShared=12
 Will use up to   12 processors via shared memory.
 ----------------------------
 # freq b3lyp/gen pseudo=read
 ----------------------------
 1/10=4,30=1,38=1/1,3;
 2/12=2,17=6,18=5,40=1/2;
 3/5=7,11=2,16=1,17=8,25=1,30=1,71=2,74=-5,140=1/1,2,3;
 4//1;
 5/5=2,38=5,98=1/2;
 8/6=4,10=90,11=11/1;
 11/6=1,8=1,9=11,15=111,16=1/1,2,10;
 10/6=1/2;
 6/7=2,8=2,9=2,10=2,28=1/1;
 7/8=1,10=1,25=1/1,2,3,16;
 1/10=4,30=1/3;
 99//99;
 -----
 f2_m2
 -----
 Symbolic Z-matrix:
 Charge =  0 Multiplicity = 2
 H                    -1   -7.67701   1.2504   -4.89974 
 H                    -1   -7.67679  -1.24843  -4.89994 
 H                    -1   -3.83842   1.24973  -4.89973 
 H                    -1   -3.83821  -1.24911  -4.89973 
 H                    -1    0.00013   1.24939  -4.89948 
 H                    -1    0.00034  -1.24943  -4.89973 
 H                    -1    3.8387    1.24868  -4.89955 
 H                    -1    3.8389   -1.25016  -4.89949 
 H                    -1    7.67732   1.24836  -4.8993 
 H                    -1    7.67751  -1.25047  -4.89949 
 H                    -1    10.81885  -0.00175  -3.60219 
 H                    -1   -10.81841   0.00114  -3.60281 
 H                    -1   -9.5961   -3.07314  -2.01356 
 H                    -1   -5.75738  -3.07334  -2.01349 
 H                    -1   -1.91896  -3.07386  -2.01342 
 H                    -1    1.9199   -3.07434  -2.0133 
 H                    -1    5.75814  -3.07486  -2.01312 
 H                    -1    9.59695  -3.07571  -2.01302 
 H                    -1   -9.59659   3.07505  -2.01319 
 H                    -1   -5.75813   3.07433  -2.01311 
 H                    -1   -1.91923   3.07384  -2.01309 
 H                    -1    1.91903   3.07322  -2.01297 
 H                    -1    5.75804   3.0727   -2.01278 
 H                    -1    9.59643   3.0725   -2.01264 
 H                    -1   -10.80793   1.42577  -0.45626 
 H                    -1   -10.80777  -1.42339  -0.45634 
 H                    -1    10.80792   1.42287  -0.45567 
 H                    -1    10.80823  -1.42626  -0.45575 
 Si                   -7.69604  -0.00181  -4.11634 
 Si                   -3.83668   0.00213  -4.11631 
 Si                    0.00802  -0.00133  -4.10195 
 Si                    3.832    -0.00001  -4.11795 
 Si                    7.68368  -0.00306  -4.10529 
 Si                   -9.60052  -0.03764  -2.80917 
 Si                   -5.76597   0.00149  -2.82189 
 Si                   -1.91921   0.02857  -2.80914 
 Si                    1.93298  -0.00038  -2.79288 
 Si                    5.74187  -0.03084  -2.81411 
 Si                    9.6      -0.03927  -2.80856 
 Si                   -9.62787   1.74518  -1.30891 
 Si                   -9.57788  -1.75353  -1.25655 
 Si                   -5.6574    1.76894  -1.24595 
 Si                   -5.88271  -1.76948  -1.25016 
 Si                   -2.00033   1.7698   -1.24963 
 Si                   -1.89891  -1.76695  -1.26993 
 Si                    1.90359   1.77462  -1.26227 
 Si                    1.92301  -1.77519  -1.26326 
 Si                    5.72906   1.76237  -1.27739 
 Si                    5.82569  -1.77372  -1.24828 
 Si                    9.63221   1.74165  -1.3075 
 Si                    9.58395  -1.75702  -1.25857 
 Si                   -7.65198   0.90237  -0.38191 
 Si                   -7.72349  -1.35087   0.20732 
 Si                   -3.83324   1.36124   0.23895 
 Si                   -3.8861   -0.89748  -0.40676 
 Si                   -0.03756   1.21282  -0.07269 
 Si                    0.00486  -1.16972  -0.04365 
 Si                    3.82454   1.19048  -0.03566 
 Si                    3.86586  -1.24156  -0.05066 
 Si                    7.68269   0.87242  -0.35775 
 Si                    7.70669  -1.36959   0.16505 
 Cl                    3.8729    1.97283   1.92471 
 Cl                    3.84041  -1.98823   1.92245 
 Bi                   -0.00385   0.04604   2.34835 
 

 GradGradGradGradGradGradGradGradGradGradGradGradGradGradGradGradGradGrad
 Berny optimization.
 Initialization pass.
 Trust Radius=3.00D-01 FncErr=1.00D-07 GrdErr=1.00D-07 EigMax=2.50D+02 EigMin=1.00D-04
 Number of steps in this run=      2 maximum allowed number of steps=      2.
 GradGradGradGradGradGradGradGradGradGradGradGradGradGradGradGradGradGrad

 Stoichiometry    BiCl2H28Si33(2)
 Framework group  C1[X(BiCl2H28Si33)]
 Deg. of freedom   186
 Full point group                 C1      NOp   1
 Largest Abelian subgroup         C1      NOp   1
 Largest concise Abelian subgroup C1      NOp   1
                         Standard orientation:                         
 ---------------------------------------------------------------------
 Center     Atomic      Atomic             Coordinates (Angstroms)
 Number     Number       Type             X           Y           Z
 ---------------------------------------------------------------------
      1          1           0       -7.980423   -3.783111   -1.240105
      2          1           0       -7.975001   -3.782138    1.258714
      3          1           0       -4.142828   -3.870278   -1.247386
      4          1           0       -4.137419   -3.869106    1.251447
      5          1           0       -0.305277   -3.957212   -1.255004
      6          1           0       -0.299860   -3.956284    1.243810
      7          1           0        3.532297   -4.044457   -1.262241
      8          1           0        3.537705   -4.043230    1.236591
      9          1           0        7.369926   -4.131386   -1.269873
     10          1           0        7.375313   -4.130400    1.228946
     11          1           0       10.542705   -2.905367   -0.026953
     12          1           0      -11.088954   -2.414586    0.014983
     13          1           0       -9.824459   -0.852055    3.085905
     14          1           0       -5.986738   -0.939165    3.078151
     15          1           0       -2.149314   -1.026267    3.070713
     16          1           0        1.688545   -1.113339    3.063247
     17          1           0        5.525796   -1.200329    3.055818
     18          1           0        9.363611   -1.287409    3.048709
     19          1           0       -9.837753   -0.854566   -3.062270
     20          1           0       -6.000281   -0.941664   -3.069506
     21          1           0       -2.162380   -1.028832   -3.076964
     22          1           0        1.674878   -1.115884   -3.084302
     23          1           0        5.512903   -1.202883   -3.091729
     24          1           0        9.350297   -1.289913   -3.099484
     25          1           0      -11.009979    0.730249   -1.411293
     26          1           0      -11.003885    0.731505    1.437854
     27          1           0       10.600262    0.239914   -1.453170
     28          1           0       10.606509    0.241167    1.395944
     29         14           0       -7.979044   -2.998896    0.011728
     30         14           0       -4.120705   -3.086517   -0.000202
     31         14           0       -0.276670   -3.159472   -0.004714
     32         14           0        3.545953   -3.262318   -0.013952
     33         14           0        7.396924   -3.337134   -0.018887
     34         14           0       -9.853273   -1.648787    0.050832
     35         14           0       -6.020089   -1.748615    0.003765
     36         14           0       -2.174100   -1.823245   -0.031287
     37         14           0        1.677523   -1.894462   -0.010333
     38         14           0        5.484996   -2.002180    0.012250
     39         14           0        9.342274   -2.084250    0.012686
     40         14           0       -9.850254   -0.149138   -1.732701
     41         14           0       -9.791809   -0.096277    1.765862
     42         14           0       -5.879443   -0.176371   -1.764721
     43         14           0       -6.097415   -0.173803    1.774152
     44         14           0       -2.223405   -0.263110   -1.773154
     45         14           0       -2.115105   -0.284046    1.763383
     46         14           0        1.679197   -0.364414   -1.786059
     47         14           0        1.705985   -0.364170    1.763704
     48         14           0        5.503357   -0.466402   -1.781725
     49         14           0        5.607990   -0.437834    1.754142
     50         14           0        9.404854   -0.585144   -1.769073
     51         14           0        9.365000   -0.533479    1.729663
     52         14           0       -7.852070    0.733146   -0.894471
     53         14           0       -7.905496    1.324913    1.358607
     54         14           0       -4.021181    1.266908   -1.361576
     55         14           0       -4.083993    0.623621    0.897588
     56         14           0       -0.233261    0.869209   -1.220856
     57         14           0       -0.185224    0.898396    1.161573
     58         14           0        3.628720    0.818525   -1.206535
     59         14           0        3.674756    0.803743    1.225421
     60         14           0        7.479218    0.409051   -0.896300
     61         14           0        7.519760    0.932218    1.345378
     62         17           0        3.719962    2.776919   -1.990001
     63         17           0        3.695682    2.777270    1.971118
     64         83           0       -0.142141    3.289404   -0.055400
 ---------------------------------------------------------------------
 Rotational constants (GHZ):           0.0715451           0.0131376           0.0120759
 General basis read from cards:  (5D, 7F)
 ======================================================================================================
                                       Pseudopotential Parameters
 ======================================================================================================
  Center     Atomic      Valence      Angular      Power
  Number     Number     Electrons     Momentum     of R      Exponent        Coefficient   SO-Coeffient
 ======================================================================================================
    1          1
                                   No pseudopotential on this center.
    2          1
                                   No pseudopotential on this center.
    3          1
                                   No pseudopotential on this center.
    4          1
                                   No pseudopotential on this center.
    5          1
                                   No pseudopotential on this center.
    6          1
                                   No pseudopotential on this center.
    7          1
                                   No pseudopotential on this center.
    8          1
                                   No pseudopotential on this center.
    9          1
                                   No pseudopotential on this center.
   10          1
                                   No pseudopotential on this center.
   11          1
                                   No pseudopotential on this center.
   12          1
                                   No pseudopotential on this center.
   13          1
                                   No pseudopotential on this center.
   14          1
                                   No pseudopotential on this center.
   15          1
                                   No pseudopotential on this center.
   16          1
                                   No pseudopotential on this center.
   17          1
                                   No pseudopotential on this center.
   18          1
                                   No pseudopotential on this center.
   19          1
                                   No pseudopotential on this center.
   20          1
                                   No pseudopotential on this center.
   21          1
                                   No pseudopotential on this center.
   22          1
                                   No pseudopotential on this center.
   23          1
                                   No pseudopotential on this center.
   24          1
                                   No pseudopotential on this center.
   25          1
                                   No pseudopotential on this center.
   26          1
                                   No pseudopotential on this center.
   27          1
                                   No pseudopotential on this center.
   28          1
                                   No pseudopotential on this center.
   29         14            4
                                      D and up 
                                                     1      505.3137693      -10.00000000    0.00000000
                                                     2      103.2221026      -84.92360870    0.00000000
                                                     2       23.4569248      -30.32994100    0.00000000
                                                     2        6.7505693      -12.10490460    0.00000000
                                                     2        2.1603140       -1.89454080    0.00000000
                                      S - D
                                                     0      689.4910719        3.00000000    0.00000000
                                                     1      114.1728510       60.52068330    0.00000000
                                                     2       35.7424336      201.30861370    0.00000000
                                                     2        9.4529586       65.93997450    0.00000000
                                                     2        2.2543590       19.03007890    0.00000000
                                      P - D
                                                     0       88.9379355        5.00000000    0.00000000
                                                     1       76.7773538        6.64138170    0.00000000
                                                     2       56.1480987      247.59724160    0.00000000
                                                     2       21.1874014      129.37153800    0.00000000
                                                     2        6.8277276       47.46171070    0.00000000
                                                     2        2.1001192       11.73765740    0.00000000
   30         14            4
                                      D and up 
                                                     1      505.3137693      -10.00000000    0.00000000
                                                     2      103.2221026      -84.92360870    0.00000000
                                                     2       23.4569248      -30.32994100    0.00000000
                                                     2        6.7505693      -12.10490460    0.00000000
                                                     2        2.1603140       -1.89454080    0.00000000
                                      S - D
                                                     0      689.4910719        3.00000000    0.00000000
                                                     1      114.1728510       60.52068330    0.00000000
                                                     2       35.7424336      201.30861370    0.00000000
                                                     2        9.4529586       65.93997450    0.00000000
                                                     2        2.2543590       19.03007890    0.00000000
                                      P - D
                                                     0       88.9379355        5.00000000    0.00000000
                                                     1       76.7773538        6.64138170    0.00000000
                                                     2       56.1480987      247.59724160    0.00000000
                                                     2       21.1874014      129.37153800    0.00000000
                                                     2        6.8277276       47.46171070    0.00000000
                                                     2        2.1001192       11.73765740    0.00000000
   31         14            4
                                      D and up 
                                                     1      505.3137693      -10.00000000    0.00000000
                                                     2      103.2221026      -84.92360870    0.00000000
                                                     2       23.4569248      -30.32994100    0.00000000
                                                     2        6.7505693      -12.10490460    0.00000000
                                                     2        2.1603140       -1.89454080    0.00000000
                                      S - D
                                                     0      689.4910719        3.00000000    0.00000000
                                                     1      114.1728510       60.52068330    0.00000000
                                                     2       35.7424336      201.30861370    0.00000000
                                                     2        9.4529586       65.93997450    0.00000000
                                                     2        2.2543590       19.03007890    0.00000000
                                      P - D
                                                     0       88.9379355        5.00000000    0.00000000
                                                     1       76.7773538        6.64138170    0.00000000
                                                     2       56.1480987      247.59724160    0.00000000
                                                     2       21.1874014      129.37153800    0.00000000
                                                     2        6.8277276       47.46171070    0.00000000
                                                     2        2.1001192       11.73765740    0.00000000
   32         14            4
                                      D and up 
                                                     1      505.3137693      -10.00000000    0.00000000
                                                     2      103.2221026      -84.92360870    0.00000000
                                                     2       23.4569248      -30.32994100    0.00000000
                                                     2        6.7505693      -12.10490460    0.00000000
                                                     2        2.1603140       -1.89454080    0.00000000
                                      S - D
                                                     0      689.4910719        3.00000000    0.00000000
                                                     1      114.1728510       60.52068330    0.00000000
                                                     2       35.7424336      201.30861370    0.00000000
                                                     2        9.4529586       65.93997450    0.00000000
                                                     2        2.2543590       19.03007890    0.00000000
                                      P - D
                                                     0       88.9379355        5.00000000    0.00000000
                                                     1       76.7773538        6.64138170    0.00000000
                                                     2       56.1480987      247.59724160    0.00000000
                                                     2       21.1874014      129.37153800    0.00000000
                                                     2        6.8277276       47.46171070    0.00000000
                                                     2        2.1001192       11.73765740    0.00000000
   33         14            4
                                      D and up 
                                                     1      505.3137693      -10.00000000    0.00000000
                                                     2      103.2221026      -84.92360870    0.00000000
                                                     2       23.4569248      -30.32994100    0.00000000
                                                     2        6.7505693      -12.10490460    0.00000000
                                                     2        2.1603140       -1.89454080    0.00000000
                                      S - D
                                                     0      689.4910719        3.00000000    0.00000000
                                                     1      114.1728510       60.52068330    0.00000000
                                                     2       35.7424336      201.30861370    0.00000000
                                                     2        9.4529586       65.93997450    0.00000000
                                                     2        2.2543590       19.03007890    0.00000000
                                      P - D
                                                     0       88.9379355        5.00000000    0.00000000
                                                     1       76.7773538        6.64138170    0.00000000
                                                     2       56.1480987      247.59724160    0.00000000
                                                     2       21.1874014      129.37153800    0.00000000
                                                     2        6.8277276       47.46171070    0.00000000
                                                     2        2.1001192       11.73765740    0.00000000
   34         14            4
                                      D and up 
                                                     1      505.3137693      -10.00000000    0.00000000
                                                     2      103.2221026      -84.92360870    0.00000000
                                                     2       23.4569248      -30.32994100    0.00000000
                                                     2        6.7505693      -12.10490460    0.00000000
                                                     2        2.1603140       -1.89454080    0.00000000
                                      S - D
                                                     0      689.4910719        3.00000000    0.00000000
                                                     1      114.1728510       60.52068330    0.00000000
                                                     2       35.7424336      201.30861370    0.00000000
                                                     2        9.4529586       65.93997450    0.00000000
                                                     2        2.2543590       19.03007890    0.00000000
                                      P - D
                                                     0       88.9379355        5.00000000    0.00000000
                                                     1       76.7773538        6.64138170    0.00000000
                                                     2       56.1480987      247.59724160    0.00000000
                                                     2       21.1874014      129.37153800    0.00000000
                                                     2        6.8277276       47.46171070    0.00000000
                                                     2        2.1001192       11.73765740    0.00000000
   35         14            4
                                      D and up 
                                                     1      505.3137693      -10.00000000    0.00000000
                                                     2      103.2221026      -84.92360870    0.00000000
                                                     2       23.4569248      -30.32994100    0.00000000
                                                     2        6.7505693      -12.10490460    0.00000000
                                                     2        2.1603140       -1.89454080    0.00000000
                                      S - D
                                                     0      689.4910719        3.00000000    0.00000000
                                                     1      114.1728510       60.52068330    0.00000000
                                                     2       35.7424336      201.30861370    0.00000000
                                                     2        9.4529586       65.93997450    0.00000000
                                                     2        2.2543590       19.03007890    0.00000000
                                      P - D
                                                     0       88.9379355        5.00000000    0.00000000
                                                     1       76.7773538        6.64138170    0.00000000
                                                     2       56.1480987      247.59724160    0.00000000
                                                     2       21.1874014      129.37153800    0.00000000
                                                     2        6.8277276       47.46171070    0.00000000
                                                     2        2.1001192       11.73765740    0.00000000
   36         14            4
                                      D and up 
                                                     1      505.3137693      -10.00000000    0.00000000
                                                     2      103.2221026      -84.92360870    0.00000000
                                                     2       23.4569248      -30.32994100    0.00000000
                                                     2        6.7505693      -12.10490460    0.00000000
                                                     2        2.1603140       -1.89454080    0.00000000
                                      S - D
                                                     0      689.4910719        3.00000000    0.00000000
                                                     1      114.1728510       60.52068330    0.00000000
                                                     2       35.7424336      201.30861370    0.00000000
                                                     2        9.4529586       65.93997450    0.00000000
                                                     2        2.2543590       19.03007890    0.00000000
                                      P - D
                                                     0       88.9379355        5.00000000    0.00000000
                                                     1       76.7773538        6.64138170    0.00000000
                                                     2       56.1480987      247.59724160    0.00000000
                                                     2       21.1874014      129.37153800    0.00000000
                                                     2        6.8277276       47.46171070    0.00000000
                                                     2        2.1001192       11.73765740    0.00000000
   37         14            4
                                      D and up 
                                                     1      505.3137693      -10.00000000    0.00000000
                                                     2      103.2221026      -84.92360870    0.00000000
                                                     2       23.4569248      -30.32994100    0.00000000
                                                     2        6.7505693      -12.10490460    0.00000000
                                                     2        2.1603140       -1.89454080    0.00000000
                                      S - D
                                                     0      689.4910719        3.00000000    0.00000000
                                                     1      114.1728510       60.52068330    0.00000000
                                                     2       35.7424336      201.30861370    0.00000000
                                                     2        9.4529586       65.93997450    0.00000000
                                                     2        2.2543590       19.03007890    0.00000000
                                      P - D
                                                     0       88.9379355        5.00000000    0.00000000
                                                     1       76.7773538        6.64138170    0.00000000
                                                     2       56.1480987      247.59724160    0.00000000
                                                     2       21.1874014      129.37153800    0.00000000
                                                     2        6.8277276       47.46171070    0.00000000
                                                     2        2.1001192       11.73765740    0.00000000
   38         14            4
                                      D and up 
                                                     1      505.3137693      -10.00000000    0.00000000
                                                     2      103.2221026      -84.92360870    0.00000000
                                                     2       23.4569248      -30.32994100    0.00000000
                                                     2        6.7505693      -12.10490460    0.00000000
                                                     2        2.1603140       -1.89454080    0.00000000
                                      S - D
                                                     0      689.4910719        3.00000000    0.00000000
                                                     1      114.1728510       60.52068330    0.00000000
                                                     2       35.7424336      201.30861370    0.00000000
                                                     2        9.4529586       65.93997450    0.00000000
                                                     2        2.2543590       19.03007890    0.00000000
                                      P - D
                                                     0       88.9379355        5.00000000    0.00000000
                                                     1       76.7773538        6.64138170    0.00000000
                                                     2       56.1480987      247.59724160    0.00000000
                                                     2       21.1874014      129.37153800    0.00000000
                                                     2        6.8277276       47.46171070    0.00000000
                                                     2        2.1001192       11.73765740    0.00000000
   39         14            4
                                      D and up 
                                                     1      505.3137693      -10.00000000    0.00000000
                                                     2      103.2221026      -84.92360870    0.00000000
                                                     2       23.4569248      -30.32994100    0.00000000
                                                     2        6.7505693      -12.10490460    0.00000000
                                                     2        2.1603140       -1.89454080    0.00000000
                                      S - D
                                                     0      689.4910719        3.00000000    0.00000000
                                                     1      114.1728510       60.52068330    0.00000000
                                                     2       35.7424336      201.30861370    0.00000000
                                                     2        9.4529586       65.93997450    0.00000000
                                                     2        2.2543590       19.03007890    0.00000000
                                      P - D
                                                     0       88.9379355        5.00000000    0.00000000
                                                     1       76.7773538        6.64138170    0.00000000
                                                     2       56.1480987      247.59724160    0.00000000
                                                     2       21.1874014      129.37153800    0.00000000
                                                     2        6.8277276       47.46171070    0.00000000
                                                     2        2.1001192       11.73765740    0.00000000
   40         14
                                   No pseudopotential on this center.
   41         14
                                   No pseudopotential on this center.
   42         14
                                   No pseudopotential on this center.
   43         14
                                   No pseudopotential on this center.
   44         14
                                   No pseudopotential on this center.
   45         14
                                   No pseudopotential on this center.
   46         14
                                   No pseudopotential on this center.
   47         14
                                   No pseudopotential on this center.
   48         14
                                   No pseudopotential on this center.
   49         14
                                   No pseudopotential on this center.
   50         14
                                   No pseudopotential on this center.
   51         14
                                   No pseudopotential on this center.
   52         14
                                   No pseudopotential on this center.
   53         14
                                   No pseudopotential on this center.
   54         14
                                   No pseudopotential on this center.
   55         14
                                   No pseudopotential on this center.
   56         14
                                   No pseudopotential on this center.
   57         14
                                   No pseudopotential on this center.
   58         14
                                   No pseudopotential on this center.
   59         14
                                   No pseudopotential on this center.
   60         14
                                   No pseudopotential on this center.
   61         14
                                   No pseudopotential on this center.
   62         17
                                   No pseudopotential on this center.
   63         17
                                   No pseudopotential on this center.
   64         83            5
                                      G and up 
                                                     0      223.3091971       -0.18335200    0.00000000
                                                     1       86.4699216      -53.33894920    0.00000000
                                                     2       26.8492203     -201.91178410    0.00000000
                                                     2        9.3823622      -76.31152950    0.00000000
                                                     2        2.7614708      -24.25784680    0.00000000
                                                     2        0.9423923       -4.03197000    0.00000000
                                      S - G
                                                     0      155.9783914        2.79165100    0.00000000
                                                     1       54.4591139       71.85538170    0.00000000
                                                     2       20.1794558      252.43274440    0.00000000
                                                     2        6.1273104       89.60451090    0.00000000
                                                     2        1.1805983       61.17441360    0.00000000
                                                     2        0.9932464      -33.04719060    0.00000000
                                      P - G
                                                     0       74.5091386        4.84629140    0.00000000
                                                     1       28.0487647       65.68833960    0.00000000
                                                     2       12.0168508      166.26196730    0.00000000
                                                     2        3.6914327       54.13933290    0.00000000
                                                     2        0.9080824       28.62048800    0.00000000
                                                     2        0.7394617      -12.34522040    0.00000000
                                      D - G
                                                     0       68.0856679        3.21838320    0.00000000
                                                     1       23.7250355       54.89526810    0.00000000
                                                     2        9.2437053      116.55407080    0.00000000
                                                     2        1.8452292       69.07606620    0.00000000
                                                     2        1.2209859      -72.64108700    0.00000000
                                                     2        0.8740861       38.94000550    0.00000000
                                      F - G
                                                     0      134.3538983        3.98640750    0.00000000
                                                     1       51.5812797       63.02620780    0.00000000
                                                     2       54.9307284       92.52599590    0.00000000
                                                     2       17.0475346      240.99736720    0.00000000
                                                     2        3.7702824       62.18445770    0.00000000
                                                     2        0.7670500       -1.72511340    0.00000000
 ======================================================================================================
 There are   857 symmetry adapted cartesian basis functions of A   symmetry.
 There are   832 symmetry adapted basis functions of A   symmetry.
   832 basis functions,  1423 primitive gaussians,   857 cartesian basis functions
   210 alpha electrons      209 beta electrons
       nuclear repulsion energy      7758.3303436821 Hartrees.
 NAtoms=   64 NActive=   64 NUniq=   64 SFac= 1.00D+00 NAtFMM=   60 NAOKFM=T Big=T
 Integral buffers will be    131072 words long.
 Raffenetti 2 integral format.
 Two-electron integral symmetry is turned on.
 One-electron integrals computed using PRISM.
   1 Symmetry operations used in ECPInt.
 ECPInt:  NShTT=   82621 NPrTT=  283844 LenC2=   54629 LenP2D=  117641.
 LDataN:  DoStor=T MaxTD1= 6 Len=  172
 Number of processors reduced to   8 by ecpmxn.
 NBasis=   832 RedAO= T EigKep=  1.18D-05  NBF=   832
 NBsUse=   832 1.00D-06 EigRej= -1.00D+00 NBFU=   832
 Defaulting to unpruned grid for atomic number  83.
 ExpMin= 2.04D-02 ExpMax= 1.06D+05 ExpMxC= 3.62D+03 IAcc=3 IRadAn=         5 AccDes= 0.00D+00
 Harris functional with IExCor=  402 and IRadAn=       5 diagonalized for initial guess.
 HarFok:  IExCor=  402 AccDes= 0.00D+00 IRadAn=         5 IDoV= 1 UseB2=F ITyADJ=14
 ICtDFT=  3500011 ScaDFX=  1.000000  1.000000  1.000000  1.000000
 Defaulting to unpruned grid for atomic number  83.
 FoFCou: FMM=F IPFlag=           0 FMFlag=      100000 FMFlg1=        2001
         NFxFlg=           0 DoJE=T BraDBF=F KetDBF=T FulRan=T
         wScrn=  0.000000 ICntrl=       500 IOpCl=  0 I1Cent=   200000004 NGrid=           0
         NMat0=    1 NMatS0=      1 NMatT0=    0 NMatD0=    1 NMtDS0=    0 NMtDT0=    0
 Petite list used in FoFCou.
 Initial guess <Sx>= 0.0000 <Sy>= 0.0000 <Sz>= 0.5000 <S**2>= 0.7500 S= 0.5000
 Requested convergence on RMS density matrix=1.00D-08 within 128 cycles.
 Requested convergence on MAX density matrix=1.00D-06.
 Requested convergence on             energy=1.00D-06.
 No special actions if energy rises.
 Defaulting to unpruned grid for atomic number  83.
 Defaulting to unpruned grid for atomic number  83.
 Defaulting to unpruned grid for atomic number  83.
 Defaulting to unpruned grid for atomic number  83.
 Defaulting to unpruned grid for atomic number  83.
 Defaulting to unpruned grid for atomic number  83.
 Defaulting to unpruned grid for atomic number  83.
 Defaulting to unpruned grid for atomic number  83.
 Defaulting to unpruned grid for atomic number  83.
 Defaulting to unpruned grid for atomic number  83.
 Defaulting to unpruned grid for atomic number  83.
 Defaulting to unpruned grid for atomic number  83.
 Restarting incremental Fock formation.
 SCF Done:  E(UB3LYP) =  -7354.99790688     A.U. after   29 cycles
            NFock= 29  Conv=0.29D-08     -V/T= 2.0059
 <Sx>= 0.0000 <Sy>= 0.0000 <Sz>= 0.5000 <S**2>= 0.7555 S= 0.5027
 <L.S>= 0.000000000000E+00
 Annihilation of the first spin contaminant:
 S**2 before annihilation     0.7555,   after     0.7500
 DoSCS=F DFT=T ScalE2(SS,OS)=  1.000000  1.000000
 Range of M.O.s used for correlation:     1   832
 NBasis=   832 NAE=   210 NBE=   209 NFC=     0 NFV=     0
 NROrb=    832 NOA=   210 NOB=   209 NVA=   622 NVB=   623

 **** Warning!!: The largest alpha MO coefficient is  0.33306195D+02


 **** Warning!!: The smallest alpha delta epsilon is  0.73515535D-01


 **** Warning!!: The largest beta MO coefficient is  0.34456157D+02


 **** Warning!!: The smallest beta delta epsilon is  0.71422517D-01

 PrsmSu:  requested number of processors reduced to:   1 ShMem   1 Linda.
   1 Symmetry operations used in ECPInt.
 ECPInt:  NShTT=   82621 NPrTT=  283844 LenC2=   54629 LenP2D=  117641.
 LDataN:  DoStor=T MaxTD1= 7 Len=  274
 Number of processors reduced to   1 by ecpmxn.
 Symmetrizing basis deriv contribution to polar:
 IMax=3 JMax=2 DiffMx= 0.00D+00
 G2DrvN: will do     1 centers at a time, making   65 passes.
 Calling FoFCou, ICntrl=  3107 FMM=T I1Cent=   0 AccDes= 0.00D+00.
 Defaulting to unpruned grid for atomic number  83.
 Defaulting to unpruned grid for atomic number  83.
 Defaulting to unpruned grid for atomic number  83.
 Defaulting to unpruned grid for atomic number  83.
 Defaulting to unpruned grid for atomic number  83.
 Defaulting to unpruned grid for atomic number  83.
 Defaulting to unpruned grid for atomic number  83.
 Defaulting to unpruned grid for atomic number  83.
 Defaulting to unpruned grid for atomic number  83.
 Defaulting to unpruned grid for atomic number  83.
 Defaulting to unpruned grid for atomic number  83.
 Defaulting to unpruned grid for atomic number  83.
 Calling FoFCou, ICntrl=  3107 FMM=T I1Cent=   0 AccDes= 0.00D+00.
 Calling FoFCou, ICntrl=  3107 FMM=T I1Cent=   0 AccDes= 0.00D+00.
 Calling FoFCou, ICntrl=  3107 FMM=T I1Cent=   0 AccDes= 0.00D+00.
 Calling FoFCou, ICntrl=  3107 FMM=T I1Cent=   0 AccDes= 0.00D+00.
 Calling FoFCou, ICntrl=  3107 FMM=T I1Cent=   0 AccDes= 0.00D+00.
 Calling FoFCou, ICntrl=  3107 FMM=T I1Cent=   0 AccDes= 0.00D+00.
 Calling FoFCou, ICntrl=  3107 FMM=T I1Cent=   0 AccDes= 0.00D+00.
 Calling FoFCou, ICntrl=  3107 FMM=T I1Cent=   0 AccDes= 0.00D+00.
 Calling FoFCou, ICntrl=  3107 FMM=T I1Cent=   0 AccDes= 0.00D+00.
 Calling FoFCou, ICntrl=  3107 FMM=T I1Cent=   0 AccDes= 0.00D+00.
 Calling FoFCou, ICntrl=  3107 FMM=T I1Cent=   0 AccDes= 0.00D+00.
 Calling FoFCou, ICntrl=  3107 FMM=T I1Cent=   0 AccDes= 0.00D+00.
 Calling FoFCou, ICntrl=  3107 FMM=T I1Cent=   0 AccDes= 0.00D+00.
 Calling FoFCou, ICntrl=  3107 FMM=T I1Cent=   0 AccDes= 0.00D+00.
 Calling FoFCou, ICntrl=  3107 FMM=T I1Cent=   0 AccDes= 0.00D+00.
 Calling FoFCou, ICntrl=  3107 FMM=T I1Cent=   0 AccDes= 0.00D+00.
 Calling FoFCou, ICntrl=  3107 FMM=T I1Cent=   0 AccDes= 0.00D+00.
 Calling FoFCou, ICntrl=  3107 FMM=T I1Cent=   0 AccDes= 0.00D+00.
 Calling FoFCou, ICntrl=  3107 FMM=T I1Cent=   0 AccDes= 0.00D+00.
 Calling FoFCou, ICntrl=  3107 FMM=T I1Cent=   0 AccDes= 0.00D+00.
 Calling FoFCou, ICntrl=  3107 FMM=T I1Cent=   0 AccDes= 0.00D+00.
 Calling FoFCou, ICntrl=  3107 FMM=T I1Cent=   0 AccDes= 0.00D+00.
 Calling FoFCou, ICntrl=  3107 FMM=T I1Cent=   0 AccDes= 0.00D+00.
 Calling FoFCou, ICntrl=  3107 FMM=T I1Cent=   0 AccDes= 0.00D+00.
 Calling FoFCou, ICntrl=  3107 FMM=T I1Cent=   0 AccDes= 0.00D+00.
 Calling FoFCou, ICntrl=  3107 FMM=T I1Cent=   0 AccDes= 0.00D+00.
 Calling FoFCou, ICntrl=  3107 FMM=T I1Cent=   0 AccDes= 0.00D+00.
 Calling FoFCou, ICntrl=  3107 FMM=T I1Cent=   0 AccDes= 0.00D+00.
 Calling FoFCou, ICntrl=  3107 FMM=T I1Cent=   0 AccDes= 0.00D+00.
 Calling FoFCou, ICntrl=  3107 FMM=T I1Cent=   0 AccDes= 0.00D+00.
 Calling FoFCou, ICntrl=  3107 FMM=T I1Cent=   0 AccDes= 0.00D+00.
 Calling FoFCou, ICntrl=  3107 FMM=T I1Cent=   0 AccDes= 0.00D+00.
 Calling FoFCou, ICntrl=  3107 FMM=T I1Cent=   0 AccDes= 0.00D+00.
 Calling FoFCou, ICntrl=  3107 FMM=T I1Cent=   0 AccDes= 0.00D+00.
 Calling FoFCou, ICntrl=  3107 FMM=T I1Cent=   0 AccDes= 0.00D+00.
 Calling FoFCou, ICntrl=  3107 FMM=T I1Cent=   0 AccDes= 0.00D+00.
 Calling FoFCou, ICntrl=  3107 FMM=T I1Cent=   0 AccDes= 0.00D+00.
 Calling FoFCou, ICntrl=  3107 FMM=T I1Cent=   0 AccDes= 0.00D+00.
 Calling FoFCou, ICntrl=  3107 FMM=T I1Cent=   0 AccDes= 0.00D+00.
 Calling FoFCou, ICntrl=  3107 FMM=T I1Cent=   0 AccDes= 0.00D+00.
 Calling FoFCou, ICntrl=  3107 FMM=T I1Cent=   0 AccDes= 0.00D+00.
 Calling FoFCou, ICntrl=  3107 FMM=T I1Cent=   0 AccDes= 0.00D+00.
 Calling FoFCou, ICntrl=  3107 FMM=T I1Cent=   0 AccDes= 0.00D+00.
 Calling FoFCou, ICntrl=  3107 FMM=T I1Cent=   0 AccDes= 0.00D+00.
 Calling FoFCou, ICntrl=  3107 FMM=T I1Cent=   0 AccDes= 0.00D+00.
 Calling FoFCou, ICntrl=  3107 FMM=T I1Cent=   0 AccDes= 0.00D+00.
 Calling FoFCou, ICntrl=  3107 FMM=T I1Cent=   0 AccDes= 0.00D+00.
 Calling FoFCou, ICntrl=  3107 FMM=T I1Cent=   0 AccDes= 0.00D+00.
 Calling FoFCou, ICntrl=  3107 FMM=T I1Cent=   0 AccDes= 0.00D+00.
 Calling FoFCou, ICntrl=  3107 FMM=T I1Cent=   0 AccDes= 0.00D+00.
 Calling FoFCou, ICntrl=  3107 FMM=T I1Cent=   0 AccDes= 0.00D+00.
 Calling FoFCou, ICntrl=  3107 FMM=T I1Cent=   0 AccDes= 0.00D+00.
 Calling FoFCou, ICntrl=  3107 FMM=T I1Cent=   0 AccDes= 0.00D+00.
 Calling FoFCou, ICntrl=  3107 FMM=T I1Cent=   0 AccDes= 0.00D+00.
 Calling FoFCou, ICntrl=  3107 FMM=T I1Cent=   0 AccDes= 0.00D+00.
 Calling FoFCou, ICntrl=  3107 FMM=T I1Cent=   0 AccDes= 0.00D+00.
 Calling FoFCou, ICntrl=  3107 FMM=T I1Cent=   0 AccDes= 0.00D+00.
 Calling FoFCou, ICntrl=  3107 FMM=T I1Cent=   0 AccDes= 0.00D+00.
 Calling FoFCou, ICntrl=  3107 FMM=T I1Cent=   0 AccDes= 0.00D+00.
 Calling FoFCou, ICntrl=  3107 FMM=T I1Cent=   0 AccDes= 0.00D+00.
 Calling FoFCou, ICntrl=  3107 FMM=T I1Cent=   0 AccDes= 0.00D+00.
 Calling FoFCou, ICntrl=  3107 FMM=T I1Cent=   0 AccDes= 0.00D+00.
 Calling FoFCou, ICntrl=  3107 FMM=T I1Cent=   0 AccDes= 0.00D+00.
 Calling FoFCou, ICntrl=  3107 FMM=T I1Cent=   0 AccDes= 0.00D+00.
 End of G2Drv F.D. properties file   721 does not exist.
 End of G2Drv F.D. properties file   722 does not exist.
 End of G2Drv F.D. properties file   788 does not exist.
          IDoAtm=00000000000000000000000000001111111111111111111111
          IDoAtm=11111111111111
          Differentiating once with respect to electric field.
                with respect to dipole field.
          Differentiating once with respect to nuclear coordinates.
 Defaulting to unpruned grid for atomic number  83.
 CalDSu exits because no D1Ps are significant.
 Defaulting to unpruned grid for atomic number  83.
 Defaulting to unpruned grid for atomic number  83.
 Defaulting to unpruned grid for atomic number  83.
 Defaulting to unpruned grid for atomic number  83.
 Defaulting to unpruned grid for atomic number  83.
 Defaulting to unpruned grid for atomic number  83.
 Defaulting to unpruned grid for atomic number  83.
 Defaulting to unpruned grid for atomic number  83.
 Defaulting to unpruned grid for atomic number  83.
 Defaulting to unpruned grid for atomic number  83.
 Defaulting to unpruned grid for atomic number  83.
 Defaulting to unpruned grid for atomic number  83.
          There are   111 degrees of freedom in the 1st order CPHF.  IDoFFX=6 NUNeed=     3.
    111 vectors produced by pass  0 Test12= 2.61D-13 1.00D-09 XBig12= 5.82D+03 1.47D+01.
 AX will form     3 AO Fock derivatives at one time.
    111 vectors produced by pass  1 Test12= 2.61D-13 1.00D-09 XBig12= 1.80D+03 2.29D+00.
    111 vectors produced by pass  2 Test12= 2.61D-13 1.00D-09 XBig12= 3.86D+01 5.19D-01.
    111 vectors produced by pass  3 Test12= 2.61D-13 1.00D-09 XBig12= 9.20D-01 8.95D-02.
    111 vectors produced by pass  4 Test12= 2.61D-13 1.00D-09 XBig12= 1.07D-02 7.59D-03.
    111 vectors produced by pass  5 Test12= 2.61D-13 1.00D-09 XBig12= 2.01D-04 1.02D-03.
    111 vectors produced by pass  6 Test12= 2.61D-13 1.00D-09 XBig12= 1.89D-06 1.20D-04.
    108 vectors produced by pass  7 Test12= 2.61D-13 1.00D-09 XBig12= 1.10D-08 6.03D-06.
     80 vectors produced by pass  8 Test12= 2.61D-13 1.00D-09 XBig12= 7.61D-11 3.52D-07.
     72 vectors produced by pass  9 Test12= 2.61D-13 1.00D-09 XBig12= 8.33D-13 3.65D-08.
     67 vectors produced by pass 10 Test12= 2.61D-13 1.00D-09 XBig12= 1.48D-14 3.81D-09.
     53 vectors produced by pass 11 Test12= 2.61D-13 1.00D-09 XBig12= 1.05D-14 3.02D-09.
     49 vectors produced by pass 12 Test12= 2.61D-13 1.00D-09 XBig12= 1.53D-14 4.35D-09.
     46 vectors produced by pass 13 Test12= 2.61D-13 1.00D-09 XBig12= 1.07D-14 4.32D-09.
     39 vectors produced by pass 14 Test12= 2.61D-13 1.00D-09 XBig12= 8.78D-15 2.92D-09.
     31 vectors produced by pass 15 Test12= 2.61D-13 1.00D-09 XBig12= 1.17D-14 3.67D-09.
     24 vectors produced by pass 16 Test12= 2.61D-13 1.00D-09 XBig12= 6.50D-15 2.06D-09.
     20 vectors produced by pass 17 Test12= 2.61D-13 1.00D-09 XBig12= 6.79D-15 2.71D-09.
     16 vectors produced by pass 18 Test12= 2.61D-13 1.00D-09 XBig12= 9.57D-15 2.89D-09.
     14 vectors produced by pass 19 Test12= 2.61D-13 1.00D-09 XBig12= 7.92D-15 3.02D-09.
      9 vectors produced by pass 20 Test12= 2.61D-13 1.00D-09 XBig12= 6.03D-15 2.24D-09.
      7 vectors produced by pass 21 Test12= 2.61D-13 1.00D-09 XBig12= 1.06D-14 3.64D-09.
      4 vectors produced by pass 22 Test12= 2.61D-13 1.00D-09 XBig12= 3.56D-15 1.57D-09.
      4 vectors produced by pass 23 Test12= 2.61D-13 1.00D-09 XBig12= 2.26D-15 1.39D-09.
      4 vectors produced by pass 24 Test12= 2.61D-13 1.00D-09 XBig12= 2.89D-15 1.78D-09.
 InvSVY:  IOpt=1 It=  1 EMax= 7.11D-14
 Solved reduced A of dimension  1424 with   111 vectors.
 Isotropic polarizability for W=    0.000000     1176.21 Bohr**3.
 End of Minotr F.D. properties file   721 does not exist.
 End of Minotr F.D. properties file   722 does not exist.
 End of Minotr F.D. properties file   788 does not exist.

 **********************************************************************

            Population analysis using the SCF density.

 **********************************************************************

 Orbital symmetries:
 Alpha Orbitals:
       Occupied  (A) (A) (A) (A) (A) (A) (A) (A) (A) (A) (A) (A)
                 (A) (A) (A) (A) (A) (A) (A) (A) (A) (A) (A) (A)
                 (A) (A) (A) (A) (A) (A) (A) (A) (A) (A) (A) (A)
                 (A) (A) (A) (A) (A) (A) (A) (A) (A) (A) (A) (A)
                 (A) (A) (A) (A) (A) (A) (A) (A) (A) (A) (A) (A)
                 (A) (A) (A) (A) (A) (A) (A) (A) (A) (A) (A) (A)
                 (A) (A) (A) (A) (A) (A) (A) (A) (A) (A) (A) (A)
                 (A) (A) (A) (A) (A) (A) (A) (A) (A) (A) (A) (A)
                 (A) (A) (A) (A) (A) (A) (A) (A) (A) (A) (A) (A)
                 (A) (A) (A) (A) (A) (A) (A) (A) (A) (A) (A) (A)
                 (A) (A) (A) (A) (A) (A) (A) (A) (A) (A) (A) (A)
                 (A) (A) (A) (A) (A) (A) (A) (A) (A) (A) (A) (A)
                 (A) (A) (A) (A) (A) (A) (A) (A) (A) (A) (A) (A)
                 (A) (A) (A) (A) (A) (A) (A) (A) (A) (A) (A) (A)
                 (A) (A) (A) (A) (A) (A) (A) (A) (A) (A) (A) (A)
                 (A) (A) (A) (A) (A) (A) (A) (A) (A) (A) (A) (A)
                 (A) (A) (A) (A) (A) (A) (A) (A) (A) (A) (A) (A)
                 (A) (A) (A) (A) (A) (A)
       Virtual   (A) (A) (A) (A) (A) (A) (A) (A) (A) (A) (A) (A)
                 (A) (A) (A) (A) (A) (A) (A) (A) (A) (A) (A) (A)
                 (A) (A) (A) (A) (A) (A) (A) (A) (A) (A) (A) (A)
                 (A) (A) (A) (A) (A) (A) (A) (A) (A) (A) (A) (A)
                 (A) (A) (A) (A) (A) (A) (A) (A) (A) (A) (A) (A)
                 (A) (A) (A) (A) (A) (A) (A) (A) (A) (A) (A) (A)
                 (A) (A) (A) (A) (A) (A) (A) (A) (A) (A) (A) (A)
                 (A) (A) (A) (A) (A) (A) (A) (A) (A) (A) (A) (A)
                 (A) (A) (A) (A) (A) (A) (A) (A) (A) (A) (A) (A)
                 (A) (A) (A) (A) (A) (A) (A) (A) (A) (A) (A) (A)
                 (A) (A) (A) (A) (A) (A) (A) (A) (A) (A) (A) (A)
                 (A) (A) (A) (A) (A) (A) (A) (A) (A) (A) (A) (A)
                 (A) (A) (A) (A) (A) (A) (A) (A) (A) (A) (A) (A)
                 (A) (A) (A) (A) (A) (A) (A) (A) (A) (A) (A) (A)
                 (A) (A) (A) (A) (A) (A) (A) (A) (A) (A) (A) (A)
                 (A) (A) (A) (A) (A) (A) (A) (A) (A) (A) (A) (A)
                 (A) (A) (A) (A) (A) (A) (A) (A) (A) (A) (A) (A)
                 (A) (A) (A) (A) (A) (A) (A) (A) (A) (A) (A) (A)
                 (A) (A) (A) (A) (A) (A) (A) (A) (A) (A) (A) (A)
                 (A) (A) (A) (A) (A) (A) (A) (A) (A) (A) (A) (A)
                 (A) (A) (A) (A) (A) (A) (A) (A) (A) (A) (A) (A)
                 (A) (A) (A) (A) (A) (A) (A) (A) (A) (A) (A) (A)
                 (A) (A) (A) (A) (A) (A) (A) (A) (A) (A) (A) (A)
                 (A) (A) (A) (A) (A) (A) (A) (A) (A) (A) (A) (A)
                 (A) (A) (A) (A) (A) (A) (A) (A) (A) (A) (A) (A)
                 (A) (A) (A) (A) (A) (A) (A) (A) (A) (A) (A) (A)
                 (A) (A) (A) (A) (A) (A) (A) (A) (A) (A) (A) (A)
                 (A) (A) (A) (A) (A) (A) (A) (A) (A) (A) (A) (A)
                 (A) (A) (A) (A) (A) (A) (A) (A) (A) (A) (A) (A)
                 (A) (A) (A) (A) (A) (A) (A) (A) (A) (A) (A) (A)
                 (A) (A) (A) (A) (A) (A) (A) (A) (A) (A) (A) (A)
                 (A) (A) (A) (A) (A) (A) (A) (A) (A) (A) (A) (A)
                 (A) (A) (A) (A) (A) (A) (A) (A) (A) (A) (A) (A)
                 (A) (A) (A) (A) (A) (A) (A) (A) (A) (A) (A) (A)
                 (A) (A) (A) (A) (A) (A) (A) (A) (A) (A) (A) (A)
                 (A) (A) (A) (A) (A) (A) (A) (A) (A) (A) (A) (A)
                 (A) (A) (A) (A) (A) (A) (A) (A) (A) (A) (A) (A)
                 (A) (A) (A) (A) (A) (A) (A) (A) (A) (A) (A) (A)
                 (A) (A) (A) (A) (A) (A) (A) (A) (A) (A) (A) (A)
                 (A) (A) (A) (A) (A) (A) (A) (A) (A) (A) (A) (A)
                 (A) (A) (A) (A) (A) (A) (A) (A) (A) (A) (A) (A)
                 (A) (A) (A) (A) (A) (A) (A) (A) (A) (A) (A) (A)
                 (A) (A) (A) (A) (A) (A) (A) (A) (A) (A) (A) (A)
                 (A) (A) (A) (A) (A) (A) (A) (A) (A) (A) (A) (A)
                 (A) (A) (A) (A) (A) (A) (A) (A) (A) (A) (A) (A)
                 (A) (A) (A) (A) (A) (A) (A) (A) (A) (A) (A) (A)
                 (A) (A) (A) (A) (A) (A) (A) (A) (A) (A) (A) (A)
                 (A) (A) (A) (A) (A) (A) (A) (A) (A) (A) (A) (A)
                 (A) (A) (A) (A) (A) (A) (A) (A) (A) (A) (A) (A)
                 (A) (A) (A) (A) (A) (A) (A) (A) (A) (A) (A) (A)
                 (A) (A) (A) (A) (A) (A) (A) (A) (A) (A) (A) (A)
                 (A) (A) (A) (A) (A) (A) (A) (A) (A) (A)
 Beta  Orbitals:
       Occupied  (A) (A) (A) (A) (A) (A) (A) (A) (A) (A) (A) (A)
                 (A) (A) (A) (A) (A) (A) (A) (A) (A) (A) (A) (A)
                 (A) (A) (A) (A) (A) (A) (A) (A) (A) (A) (A) (A)
                 (A) (A) (A) (A) (A) (A) (A) (A) (A) (A) (A) (A)
                 (A) (A) (A) (A) (A) (A) (A) (A) (A) (A) (A) (A)
                 (A) (A) (A) (A) (A) (A) (A) (A) (A) (A) (A) (A)
                 (A) (A) (A) (A) (A) (A) (A) (A) (A) (A) (A) (A)
                 (A) (A) (A) (A) (A) (A) (A) (A) (A) (A) (A) (A)
                 (A) (A) (A) (A) (A) (A) (A) (A) (A) (A) (A) (A)
                 (A) (A) (A) (A) (A) (A) (A) (A) (A) (A) (A) (A)
                 (A) (A) (A) (A) (A) (A) (A) (A) (A) (A) (A) (A)
                 (A) (A) (A) (A) (A) (A) (A) (A) (A) (A) (A) (A)
                 (A) (A) (A) (A) (A) (A) (A) (A) (A) (A) (A) (A)
                 (A) (A) (A) (A) (A) (A) (A) (A) (A) (A) (A) (A)
                 (A) (A) (A) (A) (A) (A) (A) (A) (A) (A) (A) (A)
                 (A) (A) (A) (A) (A) (A) (A) (A) (A) (A) (A) (A)
                 (A) (A) (A) (A) (A) (A) (A) (A) (A) (A) (A) (A)
                 (A) (A) (A) (A) (A)
       Virtual   (A) (A) (A) (A) (A) (A) (A) (A) (A) (A) (A) (A)
                 (A) (A) (A) (A) (A) (A) (A) (A) (A) (A) (A) (A)
                 (A) (A) (A) (A) (A) (A) (A) (A) (A) (A) (A) (A)
                 (A) (A) (A) (A) (A) (A) (A) (A) (A) (A) (A) (A)
                 (A) (A) (A) (A) (A) (A) (A) (A) (A) (A) (A) (A)
                 (A) (A) (A) (A) (A) (A) (A) (A) (A) (A) (A) (A)
                 (A) (A) (A) (A) (A) (A) (A) (A) (A) (A) (A) (A)
                 (A) (A) (A) (A) (A) (A) (A) (A) (A) (A) (A) (A)
                 (A) (A) (A) (A) (A) (A) (A) (A) (A) (A) (A) (A)
                 (A) (A) (A) (A) (A) (A) (A) (A) (A) (A) (A) (A)
                 (A) (A) (A) (A) (A) (A) (A) (A) (A) (A) (A) (A)
                 (A) (A) (A) (A) (A) (A) (A) (A) (A) (A) (A) (A)
                 (A) (A) (A) (A) (A) (A) (A) (A) (A) (A) (A) (A)
                 (A) (A) (A) (A) (A) (A) (A) (A) (A) (A) (A) (A)
                 (A) (A) (A) (A) (A) (A) (A) (A) (A) (A) (A) (A)
                 (A) (A) (A) (A) (A) (A) (A) (A) (A) (A) (A) (A)
                 (A) (A) (A) (A) (A) (A) (A) (A) (A) (A) (A) (A)
                 (A) (A) (A) (A) (A) (A) (A) (A) (A) (A) (A) (A)
                 (A) (A) (A) (A) (A) (A) (A) (A) (A) (A) (A) (A)
                 (A) (A) (A) (A) (A) (A) (A) (A) (A) (A) (A) (A)
                 (A) (A) (A) (A) (A) (A) (A) (A) (A) (A) (A) (A)
                 (A) (A) (A) (A) (A) (A) (A) (A) (A) (A) (A) (A)
                 (A) (A) (A) (A) (A) (A) (A) (A) (A) (A) (A) (A)
                 (A) (A) (A) (A) (A) (A) (A) (A) (A) (A) (A) (A)
                 (A) (A) (A) (A) (A) (A) (A) (A) (A) (A) (A) (A)
                 (A) (A) (A) (A) (A) (A) (A) (A) (A) (A) (A) (A)
                 (A) (A) (A) (A) (A) (A) (A) (A) (A) (A) (A) (A)
                 (A) (A) (A) (A) (A) (A) (A) (A) (A) (A) (A) (A)
                 (A) (A) (A) (A) (A) (A) (A) (A) (A) (A) (A) (A)
                 (A) (A) (A) (A) (A) (A) (A) (A) (A) (A) (A) (A)
                 (A) (A) (A) (A) (A) (A) (A) (A) (A) (A) (A) (A)
                 (A) (A) (A) (A) (A) (A) (A) (A) (A) (A) (A) (A)
                 (A) (A) (A) (A) (A) (A) (A) (A) (A) (A) (A) (A)
                 (A) (A) (A) (A) (A) (A) (A) (A) (A) (A) (A) (A)
                 (A) (A) (A) (A) (A) (A) (A) (A) (A) (A) (A) (A)
                 (A) (A) (A) (A) (A) (A) (A) (A) (A) (A) (A) (A)
                 (A) (A) (A) (A) (A) (A) (A) (A) (A) (A) (A) (A)
                 (A) (A) (A) (A) (A) (A) (A) (A) (A) (A) (A) (A)
                 (A) (A) (A) (A) (A) (A) (A) (A) (A) (A) (A) (A)
                 (A) (A) (A) (A) (A) (A) (A) (A) (A) (A) (A) (A)
                 (A) (A) (A) (A) (A) (A) (A) (A) (A) (A) (A) (A)
                 (A) (A) (A) (A) (A) (A) (A) (A) (A) (A) (A) (A)
                 (A) (A) (A) (A) (A) (A) (A) (A) (A) (A) (A) (A)
                 (A) (A) (A) (A) (A) (A) (A) (A) (A) (A) (A) (A)
                 (A) (A) (A) (A) (A) (A) (A) (A) (A) (A) (A) (A)
                 (A) (A) (A) (A) (A) (A) (A) (A) (A) (A) (A) (A)
                 (A) (A) (A) (A) (A) (A) (A) (A) (A) (A) (A) (A)
                 (A) (A) (A) (A) (A) (A) (A) (A) (A) (A) (A) (A)
                 (A) (A) (A) (A) (A) (A) (A) (A) (A) (A) (A) (A)
                 (A) (A) (A) (A) (A) (A) (A) (A) (A) (A) (A) (A)
                 (A) (A) (A) (A) (A) (A) (A) (A) (A) (A) (A) (A)
                 (A) (A) (A) (A) (A) (A) (A) (A) (A) (A) (A)
 The electronic state is 2-A.
 Alpha  occ. eigenvalues -- -101.54450-101.53994 -66.14279 -66.13768 -66.13213
 Alpha  occ. eigenvalues --  -66.13050 -66.12899 -66.11548 -66.11524 -66.11257
 Alpha  occ. eigenvalues --  -66.11251 -66.11202 -66.11177 -66.10812 -66.10801
 Alpha  occ. eigenvalues --  -66.10781 -66.10442 -66.10434 -66.10196 -66.10180
 Alpha  occ. eigenvalues --  -66.09669 -66.08870 -66.08701 -66.08683  -9.45937
 Alpha  occ. eigenvalues --   -9.45482  -7.22166  -7.21710  -7.21530  -7.21514
 Alpha  occ. eigenvalues --   -7.21073  -7.21060  -5.31296  -5.30796  -5.30389
 Alpha  occ. eigenvalues --   -5.30294  -5.30115  -5.29041  -5.28981  -5.28744
 Alpha  occ. eigenvalues --   -5.28650  -5.28498  -5.28462  -5.28218  -5.28191
 Alpha  occ. eigenvalues --   -5.28119  -5.27781  -5.27715  -5.27537  -5.27489
 Alpha  occ. eigenvalues --   -5.26997  -5.26068  -5.25851  -5.25845  -3.67304
 Alpha  occ. eigenvalues --   -3.67013  -3.66965  -3.66806  -3.66597  -3.66503
 Alpha  occ. eigenvalues --   -3.66466  -3.66428  -3.66302  -3.65997  -3.65943
 Alpha  occ. eigenvalues --   -3.65876  -3.65809  -3.65728  -3.65613  -3.64878
 Alpha  occ. eigenvalues --   -3.64842  -3.64817  -3.64772  -3.64752  -3.64695
 Alpha  occ. eigenvalues --   -3.64578  -3.64546  -3.64481  -3.64457  -3.64452
 Alpha  occ. eigenvalues --   -3.64370  -3.64359  -3.64324  -3.64303  -3.64265
 Alpha  occ. eigenvalues --   -3.64200  -3.64167  -3.64040  -3.64018  -3.64004
 Alpha  occ. eigenvalues --   -3.64002  -3.63949  -3.63947  -3.63924  -3.63923
 Alpha  occ. eigenvalues --   -3.63853  -3.63618  -3.63585  -3.63558  -3.63519
 Alpha  occ. eigenvalues --   -3.63518  -3.63447  -3.63378  -3.63335  -3.63323
 Alpha  occ. eigenvalues --   -3.63285  -3.63278  -3.63202  -3.62830  -3.62755
 Alpha  occ. eigenvalues --   -3.62738  -3.61906  -3.61827  -3.61775  -3.61681
 Alpha  occ. eigenvalues --   -3.61671  -3.61633  -3.61633  -3.61533  -3.61515
 Alpha  occ. eigenvalues --   -0.82614  -0.82034  -0.64814  -0.63950  -0.63487
 Alpha  occ. eigenvalues --   -0.61550  -0.61251  -0.59255  -0.57931  -0.57892
 Alpha  occ. eigenvalues --   -0.57542  -0.56640  -0.56160  -0.55846  -0.55273
 Alpha  occ. eigenvalues --   -0.54939  -0.54052  -0.53881  -0.52895  -0.52579
 Alpha  occ. eigenvalues --   -0.51728  -0.51253  -0.48973  -0.48146  -0.47112
 Alpha  occ. eigenvalues --   -0.46881  -0.46638  -0.46095  -0.44660  -0.43826
 Alpha  occ. eigenvalues --   -0.43583  -0.43229  -0.42464  -0.41393  -0.40973
 Alpha  occ. eigenvalues --   -0.40442  -0.39538  -0.39079  -0.38765  -0.38654
 Alpha  occ. eigenvalues --   -0.38501  -0.38304  -0.38125  -0.37885  -0.37802
 Alpha  occ. eigenvalues --   -0.37318  -0.36997  -0.36370  -0.36201  -0.36008
 Alpha  occ. eigenvalues --   -0.35946  -0.35640  -0.35211  -0.35097  -0.34672
 Alpha  occ. eigenvalues --   -0.34410  -0.33065  -0.32725  -0.32454  -0.32219
 Alpha  occ. eigenvalues --   -0.31393  -0.31217  -0.30826  -0.29898  -0.29632
 Alpha  occ. eigenvalues --   -0.29440  -0.29330  -0.29279  -0.29167  -0.28946
 Alpha  occ. eigenvalues --   -0.28712  -0.28415  -0.28222  -0.27695  -0.27434
 Alpha  occ. eigenvalues --   -0.27341  -0.27102  -0.26907  -0.26810  -0.26410
 Alpha  occ. eigenvalues --   -0.26183  -0.25286  -0.24584  -0.24284  -0.23096
 Alpha  occ. eigenvalues --   -0.21713  -0.21352  -0.20838  -0.20695  -0.20258
 Alpha virt. eigenvalues --   -0.12907  -0.12635  -0.11982  -0.08143  -0.07444
 Alpha virt. eigenvalues --   -0.06818  -0.05496  -0.05254  -0.04676  -0.04511
 Alpha virt. eigenvalues --   -0.04116  -0.03914  -0.03675  -0.03621  -0.03410
 Alpha virt. eigenvalues --   -0.03152  -0.02756  -0.02624  -0.02287  -0.01781
 Alpha virt. eigenvalues --   -0.01624  -0.01293  -0.01006  -0.00893  -0.00745
 Alpha virt. eigenvalues --   -0.00499  -0.00298  -0.00193   0.00070   0.00357
 Alpha virt. eigenvalues --    0.00474   0.00654   0.00864   0.00979   0.01327
 Alpha virt. eigenvalues --    0.01434   0.01494   0.01926   0.02087   0.02177
 Alpha virt. eigenvalues --    0.02333   0.02641   0.02970   0.03131   0.03206
 Alpha virt. eigenvalues --    0.03500   0.03570   0.03765   0.03998   0.04006
 Alpha virt. eigenvalues --    0.04149   0.04349   0.04421   0.04551   0.04587
 Alpha virt. eigenvalues --    0.04715   0.04802   0.04835   0.05082   0.05119
 Alpha virt. eigenvalues --    0.05301   0.05422   0.05461   0.05595   0.05773
 Alpha virt. eigenvalues --    0.05965   0.06019   0.06248   0.06320   0.06701
 Alpha virt. eigenvalues --    0.06889   0.07079   0.07120   0.07262   0.07400
 Alpha virt. eigenvalues --    0.07668   0.07837   0.07964   0.08381   0.08431
 Alpha virt. eigenvalues --    0.08770   0.08916   0.09000   0.09236   0.09334
 Alpha virt. eigenvalues --    0.09573   0.09744   0.09971   0.10237   0.10513
 Alpha virt. eigenvalues --    0.10634   0.10770   0.10921   0.11204   0.11466
 Alpha virt. eigenvalues --    0.11579   0.11923   0.12133   0.12205   0.12480
 Alpha virt. eigenvalues --    0.12773   0.13083   0.13336   0.13470   0.13647
 Alpha virt. eigenvalues --    0.13958   0.14167   0.14447   0.14669   0.14802
 Alpha virt. eigenvalues --    0.14959   0.15203   0.15581   0.15778   0.15927
 Alpha virt. eigenvalues --    0.16049   0.16387   0.16528   0.16756   0.16826
 Alpha virt. eigenvalues --    0.17034   0.17358   0.17545   0.17703   0.17969
 Alpha virt. eigenvalues --    0.18063   0.18288   0.18549   0.18837   0.19225
 Alpha virt. eigenvalues --    0.19331   0.19740   0.19956   0.20184   0.20377
 Alpha virt. eigenvalues --    0.20412   0.20739   0.20978   0.21135   0.21585
 Alpha virt. eigenvalues --    0.21888   0.21948   0.22429   0.22555   0.22687
 Alpha virt. eigenvalues --    0.22982   0.23049   0.23350   0.23692   0.23943
 Alpha virt. eigenvalues --    0.24362   0.24537   0.24653   0.25103   0.25249
 Alpha virt. eigenvalues --    0.25701   0.26131   0.26375   0.26546   0.26700
 Alpha virt. eigenvalues --    0.27043   0.27167   0.27348   0.27577   0.27909
 Alpha virt. eigenvalues --    0.28068   0.28408   0.28616   0.28903   0.29240
 Alpha virt. eigenvalues --    0.29595   0.29731   0.30020   0.30238   0.30360
 Alpha virt. eigenvalues --    0.30835   0.31056   0.31188   0.31269   0.31417
 Alpha virt. eigenvalues --    0.31806   0.31839   0.32092   0.32633   0.32697
 Alpha virt. eigenvalues --    0.32835   0.33086   0.33343   0.33897   0.34141
 Alpha virt. eigenvalues --    0.34273   0.34529   0.34606   0.34969   0.35373
 Alpha virt. eigenvalues --    0.35513   0.35564   0.35902   0.36296   0.36472
 Alpha virt. eigenvalues --    0.36690   0.37011   0.37076   0.37239   0.37427
 Alpha virt. eigenvalues --    0.38085   0.38152   0.38377   0.38812   0.39240
 Alpha virt. eigenvalues --    0.39541   0.39795   0.40303   0.40780   0.40938
 Alpha virt. eigenvalues --    0.41487   0.41782   0.42284   0.42558   0.42801
 Alpha virt. eigenvalues --    0.43360   0.43517   0.43895   0.44219   0.44378
 Alpha virt. eigenvalues --    0.44999   0.45440   0.45910   0.46091   0.46617
 Alpha virt. eigenvalues --    0.47324   0.47771   0.48215   0.48471   0.49037
 Alpha virt. eigenvalues --    0.49397   0.49556   0.50038   0.50504   0.51076
 Alpha virt. eigenvalues --    0.51279   0.51608   0.52252   0.52583   0.52643
 Alpha virt. eigenvalues --    0.52908   0.53383   0.53604   0.54018   0.54233
 Alpha virt. eigenvalues --    0.54444   0.54460   0.54711   0.55167   0.55373
 Alpha virt. eigenvalues --    0.55928   0.56050   0.56436   0.56564   0.56985
 Alpha virt. eigenvalues --    0.57243   0.57375   0.57834   0.58052   0.58275
 Alpha virt. eigenvalues --    0.58778   0.58904   0.59494   0.59571   0.59658
 Alpha virt. eigenvalues --    0.59903   0.60279   0.60519   0.60733   0.61015
 Alpha virt. eigenvalues --    0.61110   0.61381   0.61817   0.61927   0.62319
 Alpha virt. eigenvalues --    0.62792   0.63155   0.63517   0.63635   0.63797
 Alpha virt. eigenvalues --    0.64358   0.64538   0.64776   0.64937   0.65038
 Alpha virt. eigenvalues --    0.65346   0.65534   0.65950   0.66275   0.66460
 Alpha virt. eigenvalues --    0.66648   0.66898   0.67247   0.67522   0.67930
 Alpha virt. eigenvalues --    0.68040   0.68487   0.68697   0.69195   0.69608
 Alpha virt. eigenvalues --    0.70130   0.70242   0.70520   0.70689   0.70717
 Alpha virt. eigenvalues --    0.71175   0.71373   0.71739   0.71841   0.71933
 Alpha virt. eigenvalues --    0.72388   0.72702   0.72951   0.73419   0.73825
 Alpha virt. eigenvalues --    0.73955   0.74122   0.74436   0.74659   0.75068
 Alpha virt. eigenvalues --    0.75255   0.75530   0.76237   0.76501   0.76768
 Alpha virt. eigenvalues --    0.77394   0.77622   0.78023   0.78589   0.78703
 Alpha virt. eigenvalues --    0.78933   0.79116   0.79612   0.80242   0.80737
 Alpha virt. eigenvalues --    0.81114   0.81299   0.81712   0.81935   0.82681
 Alpha virt. eigenvalues --    0.83654   0.83700   0.84977   0.85701   0.85880
 Alpha virt. eigenvalues --    0.86335   0.87002   0.87369   0.88016   0.88505
 Alpha virt. eigenvalues --    0.89052   0.89148   0.89698   0.90383   0.90724
 Alpha virt. eigenvalues --    0.91021   0.91946   0.92412   0.92651   0.93121
 Alpha virt. eigenvalues --    0.93902   0.94121   0.94497   0.94754   0.95505
 Alpha virt. eigenvalues --    0.95520   0.95950   0.96509   0.96754   0.97536
 Alpha virt. eigenvalues --    0.97787   0.98419   0.99009   0.99610   0.99817
 Alpha virt. eigenvalues --    1.00172   1.00442   1.00708   1.01161   1.01489
 Alpha virt. eigenvalues --    1.01661   1.02318   1.02660   1.03166   1.05037
 Alpha virt. eigenvalues --    1.05959   1.06303   1.07271   1.08113   1.09246
 Alpha virt. eigenvalues --    1.09435   1.10017   1.10480   1.11316   1.11947
 Alpha virt. eigenvalues --    1.12350   1.12820   1.14208   1.14682   1.15172
 Alpha virt. eigenvalues --    1.15561   1.16669   1.17575   1.19560   1.20283
 Alpha virt. eigenvalues --    1.20632   1.21422   1.23431   1.23479   1.24023
 Alpha virt. eigenvalues --    1.24240   1.25025   1.26379   1.26783   1.27121
 Alpha virt. eigenvalues --    1.27662   1.27935   1.28056   1.29015   1.29630
 Alpha virt. eigenvalues --    1.30070   1.30542   1.30991   1.31254   1.31486
 Alpha virt. eigenvalues --    1.31770   1.31937   1.32534   1.33064   1.34072
 Alpha virt. eigenvalues --    1.34168   1.35191   1.36325   1.36727   1.36787
 Alpha virt. eigenvalues --    1.37543   1.37612   1.37805   1.38192   1.38467
 Alpha virt. eigenvalues --    1.38951   1.39302   1.39987   1.40432   1.40553
 Alpha virt. eigenvalues --    1.41153   1.41502   1.41810   1.42711   1.43069
 Alpha virt. eigenvalues --    1.43224   1.43839   1.44116   1.45001   1.45173
 Alpha virt. eigenvalues --    1.45486   1.46311   1.46643   1.46940   1.47545
 Alpha virt. eigenvalues --    1.47963   1.48426   1.49236   1.49771   1.50548
 Alpha virt. eigenvalues --    1.50918   1.51153   1.52300   1.52949   1.53217
 Alpha virt. eigenvalues --    1.54458   1.54550   1.55497   1.55778   1.57823
 Alpha virt. eigenvalues --    1.59772   1.60409   1.60564   1.62303   2.28446
 Alpha virt. eigenvalues --    2.33714   2.35661   2.36384   2.40286   2.48281
 Alpha virt. eigenvalues --    5.37914   5.38404   5.40587   5.41229   5.41982
 Alpha virt. eigenvalues --    5.42536   5.45055   5.46610   5.47544   5.47859
 Alpha virt. eigenvalues --    5.49259   5.49549   5.51248   5.52761   5.53654
 Alpha virt. eigenvalues --    5.56502   5.56936   5.58362   5.59072   5.61053
 Alpha virt. eigenvalues --    5.61684   5.64216   9.76546   9.80249  11.14719
 Alpha virt. eigenvalues --   11.19837  11.22338  11.23128  11.23732  11.26890
 Alpha virt. eigenvalues --   11.27095  11.27626  11.27972  11.28230  11.28613
 Alpha virt. eigenvalues --   11.28956  11.29325  11.30206  11.30458  11.30947
 Alpha virt. eigenvalues --   11.31510  11.31861  11.32345  11.32642  11.33019
 Alpha virt. eigenvalues --   11.33253  11.33807  11.34305  11.34571  11.34741
 Alpha virt. eigenvalues --   11.34871  11.35152  11.35556  11.36099  11.36465
 Alpha virt. eigenvalues --   11.36733  11.37231  11.37344  11.37850  11.38643
 Alpha virt. eigenvalues --   11.38752  11.38958  11.39485  11.40043  11.40625
 Alpha virt. eigenvalues --   11.41319  11.42041  11.42732  11.42940  11.43671
 Alpha virt. eigenvalues --   11.44215  11.44619  11.45376  11.45626  11.46297
 Alpha virt. eigenvalues --   11.46781  11.47343  11.47990  11.48027  11.49397
 Alpha virt. eigenvalues --   11.49870  11.50326  11.51448  11.53788  11.54091
 Alpha virt. eigenvalues --   11.55952  11.56178  11.58059  11.59458  11.60194
 Alpha virt. eigenvalues --   11.60739  12.09768  12.19631  12.75336  12.98233
 Alpha virt. eigenvalues --   13.19478  14.32885  14.45416  14.91790  15.32467
 Alpha virt. eigenvalues --   15.40027  15.54883  25.89108  26.03331  26.08699
 Alpha virt. eigenvalues --   26.10401  26.28813  26.48286 140.82804 140.83234
 Alpha virt. eigenvalues --  140.86464 140.86846 140.87780 140.88873 140.90935
 Alpha virt. eigenvalues --  140.92976 140.93628 140.94216 140.95595 140.96194
 Alpha virt. eigenvalues --  140.98279 140.99489 141.00683 141.03719 141.04181
 Alpha virt. eigenvalues --  141.05624 141.06821 141.09755 141.10773 141.13606
 Alpha virt. eigenvalues --  215.77548 215.81545
  Beta  occ. eigenvalues -- -101.54444-101.53988 -66.14279 -66.13768 -66.13211
  Beta  occ. eigenvalues --  -66.13049 -66.12899 -66.11548 -66.11524 -66.11250
  Beta  occ. eigenvalues --  -66.11246 -66.11202 -66.11176 -66.10803 -66.10801
  Beta  occ. eigenvalues --  -66.10771 -66.10434 -66.10431 -66.10200 -66.10196
  Beta  occ. eigenvalues --  -66.09689 -66.08870 -66.08700 -66.08683  -9.45931
  Beta  occ. eigenvalues --   -9.45476  -7.22162  -7.21706  -7.21514  -7.21509
  Beta  occ. eigenvalues --   -7.21062  -7.21052  -5.31297  -5.30796  -5.30387
  Beta  occ. eigenvalues --   -5.30294  -5.30115  -5.29041  -5.28981  -5.28744
  Beta  occ. eigenvalues --   -5.28637  -5.28499  -5.28461  -5.28208  -5.28180
  Beta  occ. eigenvalues --   -5.28120  -5.27781  -5.27703  -5.27537  -5.27511
  Beta  occ. eigenvalues --   -5.27019  -5.26068  -5.25850  -5.25842  -3.67304
  Beta  occ. eigenvalues --   -3.67013  -3.66965  -3.66806  -3.66590  -3.66503
  Beta  occ. eigenvalues --   -3.66466  -3.66427  -3.66303  -3.65996  -3.65943
  Beta  occ. eigenvalues --   -3.65875  -3.65809  -3.65728  -3.65613  -3.64878
  Beta  occ. eigenvalues --   -3.64842  -3.64817  -3.64772  -3.64752  -3.64695
  Beta  occ. eigenvalues --   -3.64578  -3.64546  -3.64471  -3.64457  -3.64434
  Beta  occ. eigenvalues --   -3.64359  -3.64356  -3.64324  -3.64304  -3.64264
  Beta  occ. eigenvalues --   -3.64200  -3.64165  -3.64021  -3.64012  -3.63996
  Beta  occ. eigenvalues --   -3.63981  -3.63947  -3.63940  -3.63925  -3.63910
  Beta  occ. eigenvalues --   -3.63854  -3.63618  -3.63585  -3.63530  -3.63518
  Beta  occ. eigenvalues --   -3.63509  -3.63440  -3.63378  -3.63350  -3.63335
  Beta  occ. eigenvalues --   -3.63307  -3.63278  -3.63233  -3.62859  -3.62780
  Beta  occ. eigenvalues --   -3.62762  -3.61906  -3.61827  -3.61775  -3.61680
  Beta  occ. eigenvalues --   -3.61669  -3.61633  -3.61631  -3.61532  -3.61512
  Beta  occ. eigenvalues --   -0.82587  -0.82007  -0.64523  -0.63944  -0.63058
  Beta  occ. eigenvalues --   -0.61244  -0.60567  -0.59087  -0.57916  -0.57764
  Beta  occ. eigenvalues --   -0.57463  -0.56612  -0.55991  -0.55823  -0.55247
  Beta  occ. eigenvalues --   -0.54923  -0.54044  -0.53862  -0.52732  -0.52450
  Beta  occ. eigenvalues --   -0.51702  -0.51217  -0.48921  -0.48061  -0.47108
  Beta  occ. eigenvalues --   -0.46831  -0.46450  -0.46070  -0.44638  -0.43821
  Beta  occ. eigenvalues --   -0.43566  -0.43178  -0.42464  -0.41390  -0.40977
[...]
 ,-0.00467469,-0.00407152,0.02259206,0.01971699,-0.02333621,-0.00443509
 ,-0.00541173,-0.00408630,-0.00000923,-0.00005255,0.00007738,0.00001007
 ,0.00002457,-0.00003272,0.00010605,-0.00003119,0.00012162,-0.00003786,
 -0.00010018,-0.00007905,0.00035907,-0.00030087,0.00072716,0.00002443,-
 0.00008144,-0.00017075,0.00184827,-0.00292265,0.00431368,0.00060860,-0
 .00067604,-0.00027963,-0.00257988,-0.03805885,0.06980019,0.,0.,0.,0.,0
 .,0.,0.,0.,0.,0.,0.,0.,0.,0.,0.,0.,0.,0.,0.,0.,0.,0.,0.,0.,0.,0.,0.,0.
 ,0.,0.,0.,0.,0.,0.,0.,0.,0.,0.,0.,0.,0.,0.,0.,0.,0.,0.,0.,0.,0.,0.,0.,
 0.,0.,0.,0.,0.,0.,0.,0.,0.,0.,0.,0.,0.,0.,0.,0.,0.,0.,0.,0.,0.,0.,0.,0
 .,0.,0.,0.,0.,0.,0.,0.,0.,0.,0.00003082,0.00000498,0.00002812,0.000054
 46,0.00000716,0.00002960,0.00009531,0.00000711,0.00001409,0.00052116,0
 .00045287,-0.00056861,-0.00032372,-0.00022968,0.00010125,-0.00000570,-
 0.00000016,-0.00000880,-0.00003471,-0.00001835,-0.00001402,-0.00004168
 ,0.00000165,0.00000178,0.00012912,-0.00005424,0.00002871,-0.00339636,0
 .00056207,-0.00171514,-0.00364177,-0.00027361,0.00183000,0.00002737,-0
 .00003144,0.00000173,0.00003898,0.00002683,0.00002795,0.00003428,-0.00
 001446,0.00003378,0.00002934,0.00004918,0.00003209,0.00005187,-0.00004
 193,0.00002321,-0.00007251,0.00014651,0.00019024,0.00003435,-0.0001556
 8,0.00002151,-0.00044948,0.00051962,0.00102472,0.00394350,0.00357463,-
 0.00130492,-0.04969533,-0.00146371,-0.03500053,0.00390137,-0.00386650,
 0.00125059,-0.05054042,0.00108756,0.03385853,0.00002965,0.00001068,-0.
 00002362,-0.00002703,-0.00002397,-0.00001125,-0.00002762,0.00004755,0.
 00004031,0.00004412,-0.00006545,-0.00011642,-0.00003468,-0.00001943,0.
 00000724,-0.00006880,-0.00019199,-0.00035277,0.00030795,-0.00029753,-0
 .00007396,-0.00523034,0.00010421,-0.00323457,-0.01831023,0.00035785,-0
 .00013271,0.12800175,0.,0.,0.,0.,0.,0.,0.,0.,0.,0.,0.,0.,0.,0.,0.,0.,0
 .,0.,0.,0.,0.,0.,0.,0.,0.,0.,0.,0.,0.,0.,0.,0.,0.,0.,0.,0.,0.,0.,0.,0.
 ,0.,0.,0.,0.,0.,0.,0.,0.,0.,0.,0.,0.,0.,0.,0.,0.,0.,0.,0.,0.,0.,0.,0.,
 0.,0.,0.,0.,0.,0.,0.,0.,0.,0.,0.,0.,0.,0.,0.,0.,0.,0.,0.,0.,0.,-0.0000
 1947,-0.00000473,-0.00002261,-0.00003294,-0.00000191,-0.00003989,-0.00
 002529,0.00004656,-0.00009360,-0.00066230,0.00145909,0.00007314,0.0001
 3310,0.00006097,-0.00074489,0.00000298,0.00000011,0.00000803,0.0000296
 4,0.00000895,0.00001485,0.00003217,-0.00001110,0.00004723,-0.00004192,
 -0.00004413,0.00022549,0.00210371,-0.00233848,0.00085518,-0.00156173,-
 0.00304141,0.00017029,-0.00001568,0.00002054,-0.00000648,-0.00002968,-
 0.00002183,-0.00001294,-0.00000876,0.00001599,-0.00003316,-0.00001728,
 -0.00003063,0.00000058,-0.00002300,0.00008082,-0.00007269,0.00003096,-
 0.00007153,-0.00007452,0.00027361,0.00045107,-0.00030290,0.00037348,-0
 .00021203,-0.00044068,0.00177951,0.00308825,-0.00019213,-0.00144190,-0
 .01071001,-0.01389583,-0.00151543,0.00313405,-0.00062918,0.00218229,-0
 .01132839,-0.01437805,-0.00002079,-0.00001951,0.00002953,0.00001573,0.
 00002177,-0.00000540,0.00003355,-0.00003408,-0.00001223,-0.00003303,0.
 00001693,0.00004431,0.00008485,-0.00003152,0.00013299,0.00011423,0.000
 07358,0.00012003,-0.00037045,-0.00119928,0.00045016,0.00133745,0.00063
 974,0.00158697,-0.00018407,-0.08132590,0.02175662,-0.00041804,0.097934
 23,0.,0.,0.,0.,0.,0.,0.,0.,0.,0.,0.,0.,0.,0.,0.,0.,0.,0.,0.,0.,0.,0.,0
 .,0.,0.,0.,0.,0.,0.,0.,0.,0.,0.,0.,0.,0.,0.,0.,0.,0.,0.,0.,0.,0.,0.,0.
 ,0.,0.,0.,0.,0.,0.,0.,0.,0.,0.,0.,0.,0.,0.,0.,0.,0.,0.,0.,0.,0.,0.,0.,
 0.,0.,0.,0.,0.,0.,0.,0.,0.,0.,0.,0.,0.,0.,0.,-0.00000692,0.00000219,0.
 00001398,-0.00001260,-0.00002413,0.00005987,0.00001379,-0.00017534,0.0
 0010962,0.00066142,-0.00056733,-0.00095051,-0.00007663,-0.00128818,0.0
 0149407,0.00000174,0.00000145,-0.00001289,-0.00002275,0.00001212,-0.00
 002938,-0.00006023,0.00002156,-0.00015683,0.00018155,0.00025577,-0.000
 73955,-0.00530810,0.00256441,-0.00287807,0.00475815,0.00280870,-0.0019
 0748,-0.00000727,-0.00000104,0.00001314,0.00001168,-0.00000129,-0.0000
 4089,-0.00005031,-0.00002245,0.00001500,0.00002062,-0.00003866,-0.0001
 1866,-0.00004841,-0.00015226,0.00010815,0.00018762,-0.00016976,-0.0003
 1495,-0.00022105,-0.00063354,0.00050865,0.00040505,-0.00012868,-0.0017
 6367,-0.00123531,-0.00525985,0.00143539,-0.02543150,-0.00984016,-0.028
 40397,0.00088748,-0.00538890,0.00163395,0.02855170,-0.00906823,-0.0301
 6499,0.00000162,0.00004111,-0.00003878,0.00001779,-0.00000442,0.000066
 11,-0.00003429,0.00000428,-0.00000313,0.00008412,0.00015016,0.00017340
 ,-0.00007129,0.00006082,-0.00017573,0.00029839,0.00031216,0.00068519,-
 0.00001775,0.00163168,-0.00057187,0.00065547,0.00137676,0.00408007,0.0
 0052340,0.01255048,-0.00156260,-0.00177959,0.01152899,0.05656665,0.,0.
 ,0.,0.,0.,0.,0.,0.,0.,0.,0.,0.,0.,0.,0.,0.,0.,0.,0.,0.,0.,0.,0.,0.,0.,
 0.,0.,0.,0.,0.,0.,0.,0.,0.,0.,0.,0.,0.,0.,0.,0.,0.,0.,0.,0.,0.,0.,0.,0
 .,0.,0.,0.,0.,0.,0.,0.,0.,0.,0.,0.,0.,0.,0.,0.,0.,0.,0.,0.,0.,0.,0.,0.
 ,0.,0.,0.,0.,0.,0.,0.,0.,0.,0.,0.,0.,0.00003928,0.00000825,0.00004119,
 0.00007001,-0.00000778,0.00006225,0.00064871,-0.00082202,-0.00018962,-
 0.00090688,-0.00001545,-0.00000410,0.00064873,0.00085290,0.00020559,-0
 .00000560,0.00000252,-0.00001783,-0.00005611,-0.00002875,-0.00003673,-
 0.00000521,0.00003138,-0.00003848,-0.00192158,0.00091417,-0.00058539,-
 0.00200229,-0.00080215,0.00060523,0.00007915,0.00003566,0.00002055,0.0
 0003147,-0.00004121,0.00000144,0.00005178,0.00003211,0.00002148,0.0000
 5794,-0.00000661,0.00001884,0.00003326,0.00004888,-0.00003174,0.000230
 08,-0.00001421,-0.00011902,0.00011138,-0.00007896,-0.00003123,0.002197
 86,-0.00301909,-0.00455356,-0.00048060,0.00036211,-0.00042088,0.001827
 86,0.00284494,0.00469652,-0.00059978,-0.00040724,0.00047457,0.00008332
 ,-0.00001786,0.00012449,0.00027724,0.00002478,0.00014708,0.00004031,0.
 00001621,-0.00002086,-0.00002345,-0.00002203,0.00001028,-0.00001161,-0
 .00001612,0.00002394,0.00007773,0.00000930,0.00004841,0.00030620,-0.00
 012849,0.00033423,0.00006437,-0.00004163,0.00016347,-0.01247339,-0.000
 93403,-0.00271099,0.00047966,-0.00002081,-0.00010567,0.00111022,-0.000
 17474,-0.00004988,-0.00005626,0.00020032,-0.00024460,0.01087146,0.,0.,
 0.,0.,0.,0.,0.,0.,0.,0.,0.,0.,0.,0.,0.,0.,0.,0.,0.,0.,0.,0.,0.,0.,0.,0
 .,0.,0.,0.,0.,0.,0.,0.,0.,0.,0.,0.,0.,0.,0.,0.,0.,0.,0.,0.,0.,0.,0.,0.
 ,0.,0.,0.,0.,0.,0.,0.,0.,0.,0.,0.,0.,0.,0.,0.,0.,0.,0.,0.,0.,0.,0.,0.,
 0.,0.,0.,0.,0.,0.,0.,0.,0.,0.,0.,0.,0.00002270,0.00000365,0.00002350,0
 .00001204,0.00001271,0.00003929,0.00019508,0.00014511,0.00002613,-0.00
 000784,0.00008699,0.00011816,-0.00013866,0.00015163,0.00006263,-0.0000
 0411,-0.00000119,-0.00001070,-0.00003275,-0.00001251,-0.00002599,0.000
 06009,0.00000318,-0.00002050,-0.00004132,-0.00021617,0.00024529,0.0000
 1203,-0.00022518,0.00024010,-0.00001620,0.00003363,-0.00002699,0.00002
 391,-0.00003237,-0.00000305,0.00002332,0.00001829,0.00002522,0.0000308
 2,-0.00002366,0.00001822,0.00002274,0.00004573,0.00003203,-0.00000983,
 -0.00001101,0.00001380,-0.00013532,0.00011046,0.00018199,-0.00023003,0
 .00066703,0.00024104,0.00165494,-0.00139964,0.00028013,0.00033054,0.00
 072902,0.00027297,-0.00165151,-0.00128642,0.00040688,-0.00010437,-0.00
 018341,-0.00004227,0.00004790,0.00008465,0.00027026,0.00002604,0.00000
 365,-0.00001763,-0.00002161,-0.00001451,-0.00001256,-0.00004226,0.0000
 6025,0.00005354,0.00002489,-0.00008826,-0.00009048,-0.00012599,0.00004
 228,-0.00015534,0.00010992,0.00008671,-0.00010422,-0.00077661,-0.02803
 147,-0.03830057,-0.00024309,0.00056396,-0.00761491,0.00027157,-0.00026
 951,0.00008492,0.00005034,0.00021701,-0.00051311,0.00117721,0.02794842
 ,0.,0.,0.,0.,0.,0.,0.,0.,0.,0.,0.,0.,0.,0.,0.,0.,0.,0.,0.,0.,0.,0.,0.,
 0.,0.,0.,0.,0.,0.,0.,0.,0.,0.,0.,0.,0.,0.,0.,0.,0.,0.,0.,0.,0.,0.,0.,0
 .,0.,0.,0.,0.,0.,0.,0.,0.,0.,0.,0.,0.,0.,0.,0.,0.,0.,0.,0.,0.,0.,0.,0.
 ,0.,0.,0.,0.,0.,0.,0.,0.,0.,0.,0.,0.,0.,0.,0.00002630,0.00001593,0.000
 06624,-0.00002058,0.00001260,0.00015740,0.00134443,-0.00108039,-0.0001
 4796,-0.00001007,0.00002770,0.00040902,-0.00102665,-0.00092529,-0.0000
 4022,-0.00000410,-0.00000064,-0.00003719,-0.00006161,-0.00001446,-0.00
 009313,0.00030090,0.00004543,-0.00015991,-0.00289182,0.00154147,-0.000
 36862,0.00266197,0.00102361,-0.00035343,-0.00021192,-0.00000745,-0.000
 18006,0.00003070,-0.00005733,0.00000389,0.00004320,0.00003391,0.000016
 50,-0.00001950,-0.00004683,0.00008381,0.00003550,0.00006553,-0.0000204
 1,-0.00025988,-0.00010238,0.00019622,-0.00029292,0.00011257,0.00027648
 ,0.00314337,-0.00431612,-0.00548470,0.00124625,-0.00050344,-0.00027498
 ,-0.00188137,-0.00376494,-0.00538960,-0.00073710,-0.00049296,-0.000264
 16,-0.00010008,-0.00033038,-0.00002320,-0.00009599,0.00009997,0.000066
 96,0.00003190,0.00003677,-0.00005869,-0.00003244,-0.00002977,0.0000208
 4,-0.00010712,0.00012618,0.00003267,0.00005549,-0.00012563,-0.00007606
 ,0.00029122,-0.00002834,-0.00059803,0.00015214,0.00040051,-0.00035991,
 -0.00271094,-0.03898302,-0.10896947,-0.00008397,0.00130627,-0.00535293
 ,-0.00056608,0.00038535,-0.00076827,0.00015946,-0.00011173,0.00001011,
 0.00260464,0.04576613,0.12595318,0.,0.,0.,0.,0.,0.,0.,0.,0.,0.,0.,0.,0
 .,0.,0.,0.,0.,0.,0.,0.,0.,0.,0.,0.,0.,0.,0.,0.,0.,0.,0.,0.,0.,0.,0.,0.
 ,0.,0.,0.,0.,0.,0.,0.,0.,0.,0.,0.,0.,0.,0.,0.,0.,0.,0.,0.,0.,0.,0.,0.,
 0.,0.,0.,0.,0.,0.,0.,0.,0.,0.,0.,0.,0.,0.,0.,0.,0.,0.,0.,0.,0.,0.,0.,0
 .,0.,0.00003662,0.00000712,0.00003981,0.00007331,0.00002892,0.00005298
 ,0.00059913,0.00079623,-0.00020308,-0.00094632,0.00002112,-0.00000238,
 0.00064787,-0.00085257,0.00015761,-0.00000445,0.00000267,-0.00001659,-
 0.00005213,-0.00002534,-0.00002972,-0.00001870,0.00000758,-0.00003865,
 -0.00185056,-0.00089179,-0.00056694,-0.00207299,0.00088678,0.00061294,
 0.00003042,-0.00005875,0.00003606,0.00002876,-0.00003898,0.00000346,0.
 00004910,0.00002749,0.00001782,0.00005855,-0.00000273,0.00001950,0.000
 02995,0.00003873,-0.00003565,0.00014206,0.00006862,-0.00008402,0.00024
 343,-0.00003088,-0.00008762,-0.00053254,-0.00032822,-0.00043190,0.0020
 1355,0.00289327,-0.00472648,-0.00027379,0.00036302,0.00033665,0.002448
 90,-0.00290745,0.00479568,0.00010275,0.00016169,0.00007246,0.00022695,
 -0.00011942,0.00017709,0.00003501,0.00001539,-0.00002398,-0.00001869,-
 0.00001677,0.00001116,-0.00003300,-0.00001229,0.00000832,0.00010500,0.
 00000658,0.00005933,0.00005621,0.00005837,0.00014388,0.00029724,0.0001
 6531,0.00038810,0.00035715,0.00003942,0.00009082,-0.01269153,-0.000110
 62,0.00031142,0.00000454,0.00031258,-0.00017863,0.00043299,-0.00032483
 ,0.00000909,0.00031577,-0.00000901,-0.00003236,0.01130998,0.,0.,0.,0.,
 0.,0.,0.,0.,0.,0.,0.,0.,0.,0.,0.,0.,0.,0.,0.,0.,0.,0.,0.,0.,0.,0.,0.,0
 .,0.,0.,0.,0.,0.,0.,0.,0.,0.,0.,0.,0.,0.,0.,0.,0.,0.,0.,0.,0.,0.,0.,0.
 ,0.,0.,0.,0.,0.,0.,0.,0.,0.,0.,0.,0.,0.,0.,0.,0.,0.,0.,0.,0.,0.,0.,0.,
 0.,0.,0.,0.,0.,0.,0.,0.,0.,0.,-0.00002226,-0.00000485,-0.00001760,-0.0
 0001470,0.00000491,-0.00004212,-0.00016459,0.00014049,-0.00002390,-0.0
 0004420,0.00007533,-0.00014411,0.00016424,0.00013297,-0.00002017,0.000
 00099,0.00000174,0.00001144,0.00003609,0.00001326,0.00002142,-0.000044
 36,-0.00001005,0.00003066,0.00002713,-0.00023179,-0.00023882,-0.000009
 72,-0.00010062,-0.00024375,0.00007472,0.00003544,0.00004014,-0.0000130
 0,0.00002329,-0.00001433,-0.00003500,-0.00002748,-0.00000597,0.0000086
 4,0.00002546,-0.00006023,-0.00002424,-0.00003637,0.00001946,0.00003922
 ,0.00010612,-0.00019701,-0.00001969,-0.00000575,-0.00005895,-0.0014865
 5,-0.00131073,-0.00028167,0.00031839,0.00070124,-0.00013234,0.00128370
 ,-0.00137489,-0.00025617,-0.00033729,0.00065415,-0.00000851,0.00000351
 ,0.00006106,-0.00012343,0.00018249,-0.00000142,0.00000156,-0.00001857,
 -0.00003852,0.00004648,0.00001732,0.00003129,-0.00002203,0.00005988,-0
 .00000533,0.00006056,-0.00000909,-0.00004117,-0.00001108,-0.00006361,0
 .00004033,0.00014098,0.00015431,0.00006616,0.00013970,-0.00005064,0.00
 002486,0.00773908,-0.00044267,-0.02656997,0.03707939,0.00027871,-0.000
 34321,0.00024790,-0.00024376,0.00020969,-0.00023390,0.00000572,0.00048
 305,0.00010869,-0.00001942,0.02699211,0.,0.,0.,0.,0.,0.,0.,0.,0.,0.,0.
 ,0.,0.,0.,0.,0.,0.,0.,0.,0.,0.,0.,0.,0.,0.,0.,0.,0.,0.,0.,0.,0.,0.,0.,
 0.,0.,0.,0.,0.,0.,0.,0.,0.,0.,0.,0.,0.,0.,0.,0.,0.,0.,0.,0.,0.,0.,0.,0
 .,0.,0.,0.,0.,0.,0.,0.,0.,0.,0.,0.,0.,0.,0.,0.,0.,0.,0.,0.,0.,0.,0.,0.
 ,0.,0.,0.,0.00002221,0.00002181,0.00006207,-0.00001949,-0.00000174,0.0
 0016312,0.00127298,0.00101232,-0.00011102,0.00015408,0.00018507,0.0004
 1927,-0.00110613,0.00102602,-0.00010341,-0.00000274,-0.00000251,-0.000
 03951,-0.00006454,-0.00002283,-0.00009459,0.00030162,0.00001012,-0.000
 15767,-0.00280128,-0.00147279,-0.00031544,0.00260791,-0.00165934,-0.00
 046643,-0.00035445,-0.00002355,-0.00018436,0.00002546,-0.00004055,-0.0
 0000133,0.00004697,0.00004690,0.00001657,-0.00000631,-0.00002748,0.000
 08429,0.00002295,0.00008942,-0.00000137,-0.00027193,-0.00014629,0.0002
 1478,-0.00025370,0.00006599,0.00024416,0.00122611,0.00054500,-0.000276
 61,0.00325719,0.00405368,-0.00590286,-0.00076314,0.00062657,-0.0001596
 2,-0.00349943,0.00434080,-0.00585220,-0.00001361,-0.00015282,-0.000088
 61,-0.00009145,0.00004278,0.00025627,0.00003940,0.00004320,-0.00005139
 ,-0.00004112,-0.00005022,0.00002273,-0.00008327,0.00008565,0.00002237,
 0.00001505,-0.00011103,-0.00011583,0.00013405,-0.00038458,-0.00034833,
 0.00023278,0.00002384,-0.00062816,0.00004296,-0.00082590,-0.00557576,0
 .00145761,0.03744984,-0.11089831,-0.00035287,0.00023414,-0.00017260,0.
 00030026,-0.00017046,0.00038090,0.00004458,-0.00000291,0.00261046,-0.0
 0058095,-0.04494882,0.12782617,0.,0.,0.,0.,0.,0.,0.,0.,0.,0.,0.,0.,0.,
 0.,0.,0.,0.,0.,0.,0.,0.,0.,0.,0.,0.,0.,0.,0.,0.,0.,0.,0.,0.,0.,0.,0.,0
 .,0.,0.,0.,0.,0.,0.,0.,0.,0.,0.,0.,0.,0.,0.,0.,0.,0.,0.,0.,0.,0.,0.,0.
 ,0.,0.,0.,0.,0.,0.,0.,0.,0.,0.,0.,0.,0.,0.,0.,0.,0.,0.,0.,0.,0.,0.,0.,
 0.,-0.00005781,0.00000343,0.00007382,0.00039645,-0.00004793,-0.0001171
 8,-0.00044915,-0.00002653,-0.00003921,0.00040455,0.00002200,0.00009733
 ,-0.00000984,-0.00000296,-0.00002838,-0.00001205,0.00001156,-0.0000182
 9,0.00019280,-0.00000401,0.00001923,-0.00136895,0.00017681,-0.00028610
 ,-0.00135281,-0.00000614,0.00016755,0.00017025,0.00001925,0.00006106,0
 .00000155,-0.00000246,0.00002978,0.00000007,-0.00001591,-0.00001439,0.
 00000176,-0.00000717,0.00000319,-0.00007833,0.00023921,0.00001562,0.00
 003512,-0.00007161,-0.00004842,0.00151352,0.00005083,-0.00193987,0.001
 27499,-0.00012338,-0.00177191,0.00151233,-0.00004428,0.00197607,0.0014
 8959,0.00004345,0.00176457,-0.00004823,-0.00000255,-0.00008383,-0.0000
 8751,-0.00003045,-0.00005885,0.,0.00002076,0.00001648,-0.00000254,-0.0
 0000690,-0.00001581,-0.00000162,0.00004846,0.00001927,-0.00001280,0.00
 000672,-0.00001737,0.00032277,0.00002992,0.00015763,0.00013994,-0.0003
 6644,-0.00029254,-0.00453738,0.00009728,-0.00104602,-0.00417331,0.0001
 5977,0.00010164,0.00015910,0.00026170,0.00117018,0.00012250,-0.0001995
 4,0.00111766,0.00000596,-0.00002411,-0.00000183,-0.00003084,0.00001923
 ,-0.00000586,-0.00037614,-0.00048826,-0.00083499,-0.00030860,0.0004208
 3,-0.00078361,0.00737044,0.,0.,0.,0.,0.,0.,0.,0.,0.,0.,0.,0.,0.,0.,0.,
 0.,0.,0.,0.,0.,0.,0.,0.,0.,0.,0.,0.,0.,0.,0.,0.,0.,0.,0.,0.,0.,0.,0.,0
 .,0.,0.,0.,0.,0.,0.,0.,0.,0.,0.,0.,0.,0.,0.,0.,0.,0.,0.,0.,0.,0.,0.,0.
 ,0.,0.,0.,0.,0.,0.,0.,0.,0.,0.,0.,0.,0.,0.,0.,0.,0.,0.,0.,0.,0.,0.,0.0
 0001807,-0.00003458,-0.00002954,-0.00014247,-0.00029587,0.00004036,0.0
 0006035,-0.00007317,-0.00001860,-0.00000811,-0.00028722,-0.00001442,0.
 00000235,-0.00005693,-0.00000637,0.00000956,-0.00000383,0.00000242,-0.
 00007258,0.00002910,-0.00000215,0.00026247,0.00003814,0.00012127,0.000
 01965,0.00020596,0.00000690,-0.00001868,0.00004355,0.00001468,-0.00000
 490,-0.00000708,-0.00000006,-0.00000130,0.00000758,0.00002052,0.000017
 91,0.00000080,-0.00002301,-0.00006708,-0.00013624,-0.00000770,0.000010
 12,-0.00003313,-0.00000951,-0.00078126,-0.00144074,0.00153652,0.000348
 20,-0.00190724,-0.00119312,0.00056166,-0.00180884,0.00128915,-0.000438
 15,-0.00175836,-0.00115889,0.00000658,-0.00006717,0.00001676,0.0000684
 0,-0.00005767,-0.00003549,0.00000852,0.00001318,0.00002093,-0.00001833
 ,-0.00000742,-0.00002948,0.00003631,0.00005840,-0.00005339,0.00000402,
 -0.00003191,0.00004774,-0.00014920,0.00002865,-0.00029040,-0.00006822,
 0.00041584,0.00004611,0.00017987,-0.00983256,0.02360066,0.00039385,-0.
 01014830,-0.02519262,-0.00000569,0.00049438,0.00095222,0.00004227,0.00
 048893,-0.00101793,-0.00004523,0.00007023,-0.00005422,0.00001293,-0.00
 004111,0.00007661,0.00005559,-0.00041859,-0.00064760,-0.00014732,-0.00
 037222,0.00069525,-0.00017473,0.02675789,0.,0.,0.,0.,0.,0.,0.,0.,0.,0.
 ,0.,0.,0.,0.,0.,0.,0.,0.,0.,0.,0.,0.,0.,0.,0.,0.,0.,0.,0.,0.,0.,0.,0.,
 0.,0.,0.,0.,0.,0.,0.,0.,0.,0.,0.,0.,0.,0.,0.,0.,0.,0.,0.,0.,0.,0.,0.,0
 .,0.,0.,0.,0.,0.,0.,0.,0.,0.,0.,0.,0.,0.,0.,0.,0.,0.,0.,0.,0.,0.,0.,0.
 ,0.,0.,0.,0.,-0.00002932,0.00001401,0.00009099,0.00032889,-0.00007546,
 -0.00048522,-0.00001146,-0.00008233,0.00025709,-0.00025542,0.00005266,
 -0.00043468,0.00002143,-0.00000179,0.00003522,-0.00000701,0.00000904,-
 0.00005248,0.00011202,-0.00001275,-0.00013899,-0.00177844,0.00028635,-
 0.00029482,0.00156631,-0.00005458,-0.00009872,-0.00012211,0.00000013,-
 0.00017052,-0.00001287,0.00000367,-0.00004223,-0.00002544,-0.00000404,
 -0.00004440,-0.00001487,-0.00000013,-0.00002572,0.00015058,0.00011850,
 -0.00001773,-0.00003334,0.00007918,-0.00013251,-0.00036973,-0.00206347
 ,-0.00183720,-0.00012434,0.00191199,-0.00080842,0.00008339,-0.00191174
 ,-0.00126153,0.00011809,0.00214082,-0.00101945,0.00000067,-0.00003115,
 -0.00009573,0.00008575,0.00006651,-0.00011148,0.00002630,0.00001364,-0
 .00003202,0.00002210,-0.00001981,-0.00003369,0.00000271,-0.00000239,0.
 00009883,0.00001027,0.00001082,0.00003890,-0.00003497,0.00014152,0.000
 33979,0.00010833,-0.00016117,-0.00009278,-0.00034291,0.02545563,-0.046
 94896,0.00034568,-0.02708385,-0.04769534,0.00005820,0.00007749,-0.0003
 1038,-0.00001841,-0.00011628,-0.00031218,-0.00003653,-0.00000304,0.000
 03689,-0.00002932,-0.00000648,0.00005676,-0.00022265,0.00004417,0.0003
 3770,-0.00023046,-0.00002505,0.00033953,0.00067126,0.00127491,0.100563
 16\\0.,0.,0.,0.,0.,0.,0.,0.,0.,0.,0.,0.,0.,0.,0.,0.,0.,0.,0.,0.,0.,0.,
 0.,0.,0.,0.,0.,0.,0.,0.,0.,0.,0.,0.,0.,0.,0.,0.,0.,0.,0.,0.,0.,0.,0.,0
 .,0.,0.,0.,0.,0.,0.,0.,0.,0.,0.,0.,0.,0.,0.,0.,0.,0.,0.,0.,0.,0.,0.,0.
 ,0.,0.,0.,0.,0.,0.,0.,0.,0.,0.,0.,0.,0.,0.,0.,-0.00000085,-0.00000197,
 -0.00005573,0.00000777,0.00000321,-0.00005422,0.00000130,-0.00000348,-
 0.00005290,0.00000328,-0.00000315,-0.00006708,0.00000240,0.00000319,-0
 .00005930,-0.00000477,-0.00000404,0.00007536,0.00000010,-0.00000273,0.
 00005316,-0.00000830,0.00000738,0.00005530,-0.00001064,0.00000968,0.00
 006793,0.00000601,-0.00001311,0.00007226,0.00001901,-0.00002596,0.0000
 7223,-0.00002779,0.00000241,-0.00006249,0.00001821,0.00001438,-0.00006
 778,-0.00002517,-0.00000847,-0.00004572,0.00002865,0.00002168,-0.00004
 311,-0.00000900,-0.00000649,-0.00006058,0.00003274,0.00000254,-0.00005
 983,-0.00001688,0.00001104,-0.00003163,0.00003902,-0.00001115,-0.00003
 838,-0.00002915,0.00004596,-0.00004041,0.00000577,0.00000217,-0.000075
 04,-0.00003074,0.00000046,-0.00006194,0.00000357,0.00002648,-0.0000748
 9,0.00002163,-0.00004389,-0.00002515,0.00000161,0.00003386,-0.00002812
 ,-0.00000231,-0.00003656,-0.00003431,-0.00002882,0.00002931,-0.0000276
 3,0.00000777,-0.00007001,0.00000095,-0.00001377,0.00008264,0.00000546,
 0.00001508,-0.00004738,-0.00001177,-0.00001051,0.00004135,0.00000860,0
 .00001958,-0.00006968,-0.00003299,0.00002428,0.00002829,0.00002854,-0.
 00000403,-0.00003958,-0.00005255,0.00000509,0.00003360,-0.00007642,-0.
 00000797,-0.00000199,-0.00009036\\\@


 I SUPPOSE A BABY LLAMA HAS A MMAMA AND A PPOPA.
     -- RICHARD AMOUR
 Job cpu time:       2 days  9 hours 25 minutes 58.5 seconds.
 Elapsed time:       0 days  4 hours 52 minutes 24.0 seconds.
 File lengths (MBytes):  RWF=  11022 Int=      0 D2E=      0 Chk=     60 Scr=      1
 Normal termination of Gaussian 16 at Thu Feb 17 04:09:00 2022.
