 Entering Gaussian System, Link 0=g16
 Input=f7_m2.gjf
 Output=f7_m2.log
 Initial command:
 /shared/ucl/apps/gaussian/g16-a03/pgi-2016.5/g16/l1.exe "/tmpdir/job/225267.undefined/ucanssc/gaussian.2a35ac9a/Gau-101760.inp" -scrdir="/tmpdir/job/225267.undefined/ucanssc/gaussian.2a35ac9a/"
 Entering Link 1 = /shared/ucl/apps/gaussian/g16-a03/pgi-2016.5/g16/l1.exe PID=    101763.
  
 Copyright (c) 1988,1990,1992,1993,1995,1998,2003,2009,2016,
            Gaussian, Inc.  All Rights Reserved.
  
 This is part of the Gaussian(R) 16 program.  It is based on
 the Gaussian(R) 09 system (copyright 2009, Gaussian, Inc.),
 the Gaussian(R) 03 system (copyright 2003, Gaussian, Inc.),
 the Gaussian(R) 98 system (copyright 1998, Gaussian, Inc.),
 the Gaussian(R) 94 system (copyright 1995, Gaussian, Inc.),
 the Gaussian 92(TM) system (copyright 1992, Gaussian, Inc.),
 the Gaussian 90(TM) system (copyright 1990, Gaussian, Inc.),
 the Gaussian 88(TM) system (copyright 1988, Gaussian, Inc.),
 the Gaussian 86(TM) system (copyright 1986, Carnegie Mellon
 University), and the Gaussian 82(TM) system (copyright 1983,
 Carnegie Mellon University). Gaussian is a federally registered
 trademark of Gaussian, Inc.
  
 This software contains proprietary and confidential information,
 including trade secrets, belonging to Gaussian, Inc.
  
 This software is provided under written license and may be
 used, copied, transmitted, or stored only in accord with that
 written license.
  
 The following legend is applicable only to US Government
 contracts under FAR:
  
                    RESTRICTED RIGHTS LEGEND
  
 Use, reproduction and disclosure by the US Government is
 subject to restrictions as set forth in subparagraphs (a)
 and (c) of the Commercial Computer Software - Restricted
 Rights clause in FAR 52.227-19.
  
 Gaussian, Inc.
 340 Quinnipiac St., Bldg. 40, Wallingford CT 06492
  
  
 ---------------------------------------------------------------
 Warning -- This program may not be used in any manner that
 competes with the business of Gaussian, Inc. or will provide
 assistance to any competitor of Gaussian, Inc.  The licensee
 of this program is prohibited from giving any competitor of
 Gaussian, Inc. access to this program.  By using this program,
 the user acknowledges that Gaussian, Inc. is engaged in the
 business of creating and licensing software in the field of
 computational chemistry and represents and warrants to the
 licensee that it is not a competitor of Gaussian, Inc. and that
 it will not use this program in any manner prohibited above.
 ---------------------------------------------------------------
  

 Cite this work as:
 Gaussian 16, Revision A.03,
 M. J. Frisch, G. W. Trucks, H. B. Schlegel, G. E. Scuseria, 
 M. A. Robb, J. R. Cheeseman, G. Scalmani, V. Barone, 
 G. A. Petersson, H. Nakatsuji, X. Li, M. Caricato, A. V. Marenich, 
 J. Bloino, B. G. Janesko, R. Gomperts, B. Mennucci, H. P. Hratchian, 
 J. V. Ortiz, A. F. Izmaylov, J. L. Sonnenberg, D. Williams-Young, 
 F. Ding, F. Lipparini, F. Egidi, J. Goings, B. Peng, A. Petrone, 
 T. Henderson, D. Ranasinghe, V. G. Zakrzewski, J. Gao, N. Rega, 
 G. Zheng, W. Liang, M. Hada, M. Ehara, K. Toyota, R. Fukuda, 
 J. Hasegawa, M. Ishida, T. Nakajima, Y. Honda, O. Kitao, H. Nakai, 
 T. Vreven, K. Throssell, J. A. Montgomery, Jr., J. E. Peralta, 
 F. Ogliaro, M. J. Bearpark, J. J. Heyd, E. N. Brothers, K. N. Kudin, 
 V. N. Staroverov, T. A. Keith, R. Kobayashi, J. Normand, 
 K. Raghavachari, A. P. Rendell, J. C. Burant, S. S. Iyengar, 
 J. Tomasi, M. Cossi, J. M. Millam, M. Klene, C. Adamo, R. Cammi, 
 J. W. Ochterski, R. L. Martin, K. Morokuma, O. Farkas, 
 J. B. Foresman, and D. J. Fox, Gaussian, Inc., Wallingford CT, 2016.
 
 ******************************************
 Gaussian 16:  ES64L-G16RevA.03 25-Dec-2016
                16-Feb-2022 
 ******************************************
 %chk=f7_m2.chk
 %NProcShared=12
 Will use up to   12 processors via shared memory.
 ----------------------------
 # freq b3lyp/gen pseudo=read
 ----------------------------
 1/10=4,30=1,38=1/1,3;
 2/12=2,17=6,18=5,40=1/2;
 3/5=7,11=2,16=1,17=8,25=1,30=1,71=2,74=-5,140=1/1,2,3;
 4//1;
 5/5=2,38=5,98=1/2;
 8/6=4,10=90,11=11/1;
 11/6=1,8=1,9=11,15=111,16=1/1,2,10;
 10/6=1/2;
 6/7=2,8=2,9=2,10=2,28=1/1;
 7/8=1,10=1,25=1/1,2,3,16;
 1/10=4,30=1/3;
 99//99;
 -----
 f7_m2
 -----
 Symbolic Z-matrix:
 Charge =  0 Multiplicity = 2
 H                    -1   -7.67702   1.2504   -4.89976 
 H                    -1   -7.6768   -1.24843  -4.89996 
 H                    -1   -3.83842   1.24973  -4.89973 
 H                    -1   -3.83821  -1.24911  -4.89973 
 H                    -1    0.00015   1.24939  -4.89948 
 H                    -1    0.00037  -1.24943  -4.89973 
 H                    -1    3.83872   1.24868  -4.8996 
 H                    -1    3.83893  -1.25015  -4.89954 
 H                    -1    7.67735   1.24836  -4.89929 
 H                    -1    7.67753  -1.25047  -4.89948 
 H                    -1    10.81887  -0.00175  -3.60214 
 H                    -1   -10.81844   0.00114  -3.60284 
 H                    -1   -9.59612  -3.07314  -2.01358 
 H                    -1   -5.75738  -3.07334  -2.01349 
 H                    -1   -1.9189   -3.07385  -2.01341 
 H                    -1    1.92015  -3.07419  -2.01327 
 H                    -1    5.75795  -3.07468  -2.01313 
 H                    -1    9.59696  -3.0757   -2.01302 
 H                    -1   -9.59662   3.07504  -2.0132 
 H                    -1   -5.75813   3.07433  -2.01311 
 H                    -1   -1.91916   3.07383  -2.01307 
 H                    -1    1.9192    3.07301  -2.01302 
 H                    -1    5.75791   3.07248  -2.0128 
 H                    -1    9.59644   3.07249  -2.01262 
 H                    -1   -10.80796   1.42577  -0.45627 
 H                    -1   -10.8078  -1.42339  -0.45635 
 H                    -1    10.80792   1.42287  -0.45564 
 H                    -1    10.80823  -1.42627  -0.45573 
 Si                   -7.69614  -0.00166  -4.11615 
 Si                   -3.83723   0.00227  -4.11561 
 Si                    0.00025  -0.00251  -4.11259 
 Si                    3.83773   0.00125  -4.11552 
 Si                    7.69659  -0.00371  -4.11563 
 Si                   -9.60052  -0.03752  -2.80914 
 Si                   -5.76651   0.00217  -2.82155 
 Si                   -1.91843   0.03052  -2.81102 
 Si                    1.91901   0.03003  -2.81102 
 Si                    5.76681   0.00065  -2.82112 
 Si                    9.6009   -0.04011  -2.80852 
 Si                   -9.62699   1.74504  -1.30858 
 Si                   -9.57735  -1.75341  -1.25625 
 Si                   -5.65439   1.76967  -1.24461 
 Si                   -5.88128  -1.76866  -1.25042 
 Si                   -1.9863    1.77083  -1.24924 
 Si                   -1.89626  -1.76421  -1.27072 
 Si                    1.9871    1.77009  -1.24912 
 Si                    1.89704  -1.76456  -1.27071 
 Si                    5.65441   1.76803  -1.24401 
 Si                    5.88171  -1.77014  -1.24995 
 Si                    9.62704   1.74248  -1.30807 
 Si                    9.57769  -1.75598  -1.25559 
 Si                   -7.64985   0.90301  -0.38148 
 Si                   -7.72238  -1.35061   0.20739 
 Si                   -3.82457   1.36066   0.23434 
 Si                   -3.88359  -0.8968   -0.40544 
 Si                    0.00035   1.23417  -0.10372 
 Si                    0.00037  -1.14415  -0.03891 
 Si                    3.82483   1.36087   0.23583 
 Si                    3.88417  -0.897    -0.4053 
 Si                    7.64986   0.90077  -0.38105 
 Si                    7.72266  -1.35303   0.20844 
 Bi                    0.00052   0.10317   2.33997 
 

 GradGradGradGradGradGradGradGradGradGradGradGradGradGradGradGradGradGrad
 Berny optimization.
 Initialization pass.
 Trust Radius=3.00D-01 FncErr=1.00D-07 GrdErr=1.00D-07 EigMax=2.50D+02 EigMin=1.00D-04
 Number of steps in this run=      2 maximum allowed number of steps=      2.
 GradGradGradGradGradGradGradGradGradGradGradGradGradGradGradGradGradGrad

 Stoichiometry    BiH28Si33(2)
 Framework group  C1[X(BiH28Si33)]
 Deg. of freedom   180
 Full point group                 C1      NOp   1
 Largest Abelian subgroup         C1      NOp   1
 Largest concise Abelian subgroup C1      NOp   1
                         Standard orientation:                         
 ---------------------------------------------------------------------
 Center     Atomic      Atomic             Coordinates (Angstroms)
 Number     Number       Type             X           Y           Z
 ---------------------------------------------------------------------
      1          1           0       -7.677627   -3.759547   -1.319649
      2          1           0       -7.677056   -3.817615    1.178501
      3          1           0       -3.839021   -3.759706   -1.319518
      4          1           0       -3.838468   -3.817573    1.178651
      5          1           0       -0.000456   -3.759637   -1.319717
      6          1           0        0.000110   -3.817753    1.178427
      7          1           0        3.838120   -3.759948   -1.319549
      8          1           0        3.838671   -3.817757    1.178612
      9          1           0        7.676743   -3.759813   -1.319756
     10          1           0        7.677278   -3.817870    1.178396
     11          1           0       10.818507   -2.492109   -0.040387
     12          1           0      -10.818803   -2.491761   -0.040254
     13          1           0       -9.595982   -0.974177    3.069837
     14          1           0       -5.757240   -0.974268    3.069495
     15          1           0       -1.918765   -0.974376    3.069467
     16          1           0        1.920286   -0.974417    3.069275
     17          1           0        5.758089   -0.974461    3.069232
     18          1           0        9.597101   -0.974538    3.069715
     19          1           0       -9.597334   -0.831425   -3.076693
     20          1           0       -5.758843   -0.831522   -3.076512
     21          1           0       -1.919880   -0.831668   -3.076559
     22          1           0        1.918479   -0.831806   -3.076266
     23          1           0        5.757194   -0.831769   -3.076277
     24          1           0        9.595724   -0.831762   -3.076821
     25          1           0      -10.808369    0.686950   -1.391633
     26          1           0      -10.807813    0.620887    1.456754
     27          1           0       10.807505    0.686542   -1.391751
     28          1           0       10.808217    0.620476    1.456615
     29         14           0       -7.696533   -3.005143   -0.049778
     30         14           0       -3.837621   -3.004683   -0.054236
     31         14           0       -0.000140   -3.001955   -0.049931
     32         14           0        3.837341   -3.004969   -0.054289
     33         14           0        7.696198   -3.005365   -0.049882
     34         14           0       -9.600847   -1.699229    0.016606
     35         14           0       -5.766839   -1.710887   -0.023900
     36         14           0       -1.918760   -1.699873   -0.052538
     37         14           0        1.918681   -1.700058   -0.052590
     38         14           0        5.766477   -1.711008   -0.023988
     39         14           0        9.600579   -1.699528    0.016517
     40         14           0       -9.627491   -0.157786   -1.730725
     41         14           0       -9.577360   -0.186487    1.767988
     42         14           0       -5.654888   -0.093447   -1.754425
     43         14           0       -5.881287   -0.181187    1.782856
     44         14           0       -1.986802   -0.098212   -1.756207
     45         14           0       -1.896273   -0.201553    1.777378
     46         14           0        1.986598   -0.098290   -1.756019
     47         14           0        1.897028   -0.201720    1.777195
     48         14           0        5.653911   -0.093391   -1.754352
     49         14           0        5.881705   -0.181274    1.782699
     50         14           0        9.626544   -0.158207   -1.730853
     51         14           0        9.577678   -0.186752    1.767895
     52         14           0       -7.650183    0.749476   -0.867727
     53         14           0       -7.722376    1.286003    1.398937
     54         14           0       -3.824944    1.375557   -1.311535
     55         14           0       -3.883680    0.683668    0.930516
     56         14           0       -0.000025    1.034483   -1.193444
     57         14           0        0.000330    1.044202    1.185744
     58         14           0        3.824457    1.376707   -1.312780
     59         14           0        3.884077    0.683454    0.929634
     60         14           0        7.649518    0.749167   -0.867622
     61         14           0        7.722665    1.286301    1.399208
     62         83           0        0.000425    3.451328   -0.006151
 ---------------------------------------------------------------------
 Rotational constants (GHZ):           0.0807980           0.0135923           0.0125330
 General basis read from cards:  (5D, 7F)
 ======================================================================================================
                                       Pseudopotential Parameters
 ======================================================================================================
  Center     Atomic      Valence      Angular      Power
  Number     Number     Electrons     Momentum     of R      Exponent        Coefficient   SO-Coeffient
 ======================================================================================================
    1          1
                                   No pseudopotential on this center.
    2          1
                                   No pseudopotential on this center.
    3          1
                                   No pseudopotential on this center.
    4          1
                                   No pseudopotential on this center.
    5          1
                                   No pseudopotential on this center.
    6          1
                                   No pseudopotential on this center.
    7          1
                                   No pseudopotential on this center.
    8          1
                                   No pseudopotential on this center.
    9          1
                                   No pseudopotential on this center.
   10          1
                                   No pseudopotential on this center.
   11          1
                                   No pseudopotential on this center.
   12          1
                                   No pseudopotential on this center.
   13          1
                                   No pseudopotential on this center.
   14          1
                                   No pseudopotential on this center.
   15          1
                                   No pseudopotential on this center.
   16          1
                                   No pseudopotential on this center.
   17          1
                                   No pseudopotential on this center.
   18          1
                                   No pseudopotential on this center.
   19          1
                                   No pseudopotential on this center.
   20          1
                                   No pseudopotential on this center.
   21          1
                                   No pseudopotential on this center.
   22          1
                                   No pseudopotential on this center.
   23          1
                                   No pseudopotential on this center.
   24          1
                                   No pseudopotential on this center.
   25          1
                                   No pseudopotential on this center.
   26          1
                                   No pseudopotential on this center.
   27          1
                                   No pseudopotential on this center.
   28          1
                                   No pseudopotential on this center.
   29         14            4
                                      D and up 
                                                     1      505.3137693      -10.00000000    0.00000000
                                                     2      103.2221026      -84.92360870    0.00000000
                                                     2       23.4569248      -30.32994100    0.00000000
                                                     2        6.7505693      -12.10490460    0.00000000
                                                     2        2.1603140       -1.89454080    0.00000000
                                      S - D
                                                     0      689.4910719        3.00000000    0.00000000
                                                     1      114.1728510       60.52068330    0.00000000
                                                     2       35.7424336      201.30861370    0.00000000
                                                     2        9.4529586       65.93997450    0.00000000
                                                     2        2.2543590       19.03007890    0.00000000
                                      P - D
                                                     0       88.9379355        5.00000000    0.00000000
                                                     1       76.7773538        6.64138170    0.00000000
                                                     2       56.1480987      247.59724160    0.00000000
                                                     2       21.1874014      129.37153800    0.00000000
                                                     2        6.8277276       47.46171070    0.00000000
                                                     2        2.1001192       11.73765740    0.00000000
   30         14            4
                                      D and up 
                                                     1      505.3137693      -10.00000000    0.00000000
                                                     2      103.2221026      -84.92360870    0.00000000
                                                     2       23.4569248      -30.32994100    0.00000000
                                                     2        6.7505693      -12.10490460    0.00000000
                                                     2        2.1603140       -1.89454080    0.00000000
                                      S - D
                                                     0      689.4910719        3.00000000    0.00000000
                                                     1      114.1728510       60.52068330    0.00000000
                                                     2       35.7424336      201.30861370    0.00000000
                                                     2        9.4529586       65.93997450    0.00000000
                                                     2        2.2543590       19.03007890    0.00000000
                                      P - D
                                                     0       88.9379355        5.00000000    0.00000000
                                                     1       76.7773538        6.64138170    0.00000000
                                                     2       56.1480987      247.59724160    0.00000000
                                                     2       21.1874014      129.37153800    0.00000000
                                                     2        6.8277276       47.46171070    0.00000000
                                                     2        2.1001192       11.73765740    0.00000000
   31         14            4
                                      D and up 
                                                     1      505.3137693      -10.00000000    0.00000000
                                                     2      103.2221026      -84.92360870    0.00000000
                                                     2       23.4569248      -30.32994100    0.00000000
                                                     2        6.7505693      -12.10490460    0.00000000
                                                     2        2.1603140       -1.89454080    0.00000000
                                      S - D
                                                     0      689.4910719        3.00000000    0.00000000
                                                     1      114.1728510       60.52068330    0.00000000
                                                     2       35.7424336      201.30861370    0.00000000
                                                     2        9.4529586       65.93997450    0.00000000
                                                     2        2.2543590       19.03007890    0.00000000
                                      P - D
                                                     0       88.9379355        5.00000000    0.00000000
                                                     1       76.7773538        6.64138170    0.00000000
                                                     2       56.1480987      247.59724160    0.00000000
                                                     2       21.1874014      129.37153800    0.00000000
                                                     2        6.8277276       47.46171070    0.00000000
                                                     2        2.1001192       11.73765740    0.00000000
   32         14            4
                                      D and up 
                                                     1      505.3137693      -10.00000000    0.00000000
                                                     2      103.2221026      -84.92360870    0.00000000
                                                     2       23.4569248      -30.32994100    0.00000000
                                                     2        6.7505693      -12.10490460    0.00000000
                                                     2        2.1603140       -1.89454080    0.00000000
                                      S - D
                                                     0      689.4910719        3.00000000    0.00000000
                                                     1      114.1728510       60.52068330    0.00000000
                                                     2       35.7424336      201.30861370    0.00000000
                                                     2        9.4529586       65.93997450    0.00000000
                                                     2        2.2543590       19.03007890    0.00000000
                                      P - D
                                                     0       88.9379355        5.00000000    0.00000000
                                                     1       76.7773538        6.64138170    0.00000000
                                                     2       56.1480987      247.59724160    0.00000000
                                                     2       21.1874014      129.37153800    0.00000000
                                                     2        6.8277276       47.46171070    0.00000000
                                                     2        2.1001192       11.73765740    0.00000000
   33         14            4
                                      D and up 
                                                     1      505.3137693      -10.00000000    0.00000000
                                                     2      103.2221026      -84.92360870    0.00000000
                                                     2       23.4569248      -30.32994100    0.00000000
                                                     2        6.7505693      -12.10490460    0.00000000
                                                     2        2.1603140       -1.89454080    0.00000000
                                      S - D
                                                     0      689.4910719        3.00000000    0.00000000
                                                     1      114.1728510       60.52068330    0.00000000
                                                     2       35.7424336      201.30861370    0.00000000
                                                     2        9.4529586       65.93997450    0.00000000
                                                     2        2.2543590       19.03007890    0.00000000
                                      P - D
                                                     0       88.9379355        5.00000000    0.00000000
                                                     1       76.7773538        6.64138170    0.00000000
                                                     2       56.1480987      247.59724160    0.00000000
                                                     2       21.1874014      129.37153800    0.00000000
                                                     2        6.8277276       47.46171070    0.00000000
                                                     2        2.1001192       11.73765740    0.00000000
   34         14            4
                                      D and up 
                                                     1      505.3137693      -10.00000000    0.00000000
                                                     2      103.2221026      -84.92360870    0.00000000
                                                     2       23.4569248      -30.32994100    0.00000000
                                                     2        6.7505693      -12.10490460    0.00000000
                                                     2        2.1603140       -1.89454080    0.00000000
                                      S - D
                                                     0      689.4910719        3.00000000    0.00000000
                                                     1      114.1728510       60.52068330    0.00000000
                                                     2       35.7424336      201.30861370    0.00000000
                                                     2        9.4529586       65.93997450    0.00000000
                                                     2        2.2543590       19.03007890    0.00000000
                                      P - D
                                                     0       88.9379355        5.00000000    0.00000000
                                                     1       76.7773538        6.64138170    0.00000000
                                                     2       56.1480987      247.59724160    0.00000000
                                                     2       21.1874014      129.37153800    0.00000000
                                                     2        6.8277276       47.46171070    0.00000000
                                                     2        2.1001192       11.73765740    0.00000000
   35         14            4
                                      D and up 
                                                     1      505.3137693      -10.00000000    0.00000000
                                                     2      103.2221026      -84.92360870    0.00000000
                                                     2       23.4569248      -30.32994100    0.00000000
                                                     2        6.7505693      -12.10490460    0.00000000
                                                     2        2.1603140       -1.89454080    0.00000000
                                      S - D
                                                     0      689.4910719        3.00000000    0.00000000
                                                     1      114.1728510       60.52068330    0.00000000
                                                     2       35.7424336      201.30861370    0.00000000
                                                     2        9.4529586       65.93997450    0.00000000
                                                     2        2.2543590       19.03007890    0.00000000
                                      P - D
                                                     0       88.9379355        5.00000000    0.00000000
                                                     1       76.7773538        6.64138170    0.00000000
                                                     2       56.1480987      247.59724160    0.00000000
                                                     2       21.1874014      129.37153800    0.00000000
                                                     2        6.8277276       47.46171070    0.00000000
                                                     2        2.1001192       11.73765740    0.00000000
   36         14            4
                                      D and up 
                                                     1      505.3137693      -10.00000000    0.00000000
                                                     2      103.2221026      -84.92360870    0.00000000
                                                     2       23.4569248      -30.32994100    0.00000000
                                                     2        6.7505693      -12.10490460    0.00000000
                                                     2        2.1603140       -1.89454080    0.00000000
                                      S - D
                                                     0      689.4910719        3.00000000    0.00000000
                                                     1      114.1728510       60.52068330    0.00000000
                                                     2       35.7424336      201.30861370    0.00000000
                                                     2        9.4529586       65.93997450    0.00000000
                                                     2        2.2543590       19.03007890    0.00000000
                                      P - D
                                                     0       88.9379355        5.00000000    0.00000000
                                                     1       76.7773538        6.64138170    0.00000000
                                                     2       56.1480987      247.59724160    0.00000000
                                                     2       21.1874014      129.37153800    0.00000000
                                                     2        6.8277276       47.46171070    0.00000000
                                                     2        2.1001192       11.73765740    0.00000000
   37         14            4
                                      D and up 
                                                     1      505.3137693      -10.00000000    0.00000000
                                                     2      103.2221026      -84.92360870    0.00000000
                                                     2       23.4569248      -30.32994100    0.00000000
                                                     2        6.7505693      -12.10490460    0.00000000
                                                     2        2.1603140       -1.89454080    0.00000000
                                      S - D
                                                     0      689.4910719        3.00000000    0.00000000
                                                     1      114.1728510       60.52068330    0.00000000
                                                     2       35.7424336      201.30861370    0.00000000
                                                     2        9.4529586       65.93997450    0.00000000
                                                     2        2.2543590       19.03007890    0.00000000
                                      P - D
                                                     0       88.9379355        5.00000000    0.00000000
                                                     1       76.7773538        6.64138170    0.00000000
                                                     2       56.1480987      247.59724160    0.00000000
                                                     2       21.1874014      129.37153800    0.00000000
                                                     2        6.8277276       47.46171070    0.00000000
                                                     2        2.1001192       11.73765740    0.00000000
   38         14            4
                                      D and up 
                                                     1      505.3137693      -10.00000000    0.00000000
                                                     2      103.2221026      -84.92360870    0.00000000
                                                     2       23.4569248      -30.32994100    0.00000000
                                                     2        6.7505693      -12.10490460    0.00000000
                                                     2        2.1603140       -1.89454080    0.00000000
                                      S - D
                                                     0      689.4910719        3.00000000    0.00000000
                                                     1      114.1728510       60.52068330    0.00000000
                                                     2       35.7424336      201.30861370    0.00000000
                                                     2        9.4529586       65.93997450    0.00000000
                                                     2        2.2543590       19.03007890    0.00000000
                                      P - D
                                                     0       88.9379355        5.00000000    0.00000000
                                                     1       76.7773538        6.64138170    0.00000000
                                                     2       56.1480987      247.59724160    0.00000000
                                                     2       21.1874014      129.37153800    0.00000000
                                                     2        6.8277276       47.46171070    0.00000000
                                                     2        2.1001192       11.73765740    0.00000000
   39         14            4
                                      D and up 
                                                     1      505.3137693      -10.00000000    0.00000000
                                                     2      103.2221026      -84.92360870    0.00000000
                                                     2       23.4569248      -30.32994100    0.00000000
                                                     2        6.7505693      -12.10490460    0.00000000
                                                     2        2.1603140       -1.89454080    0.00000000
                                      S - D
                                                     0      689.4910719        3.00000000    0.00000000
                                                     1      114.1728510       60.52068330    0.00000000
                                                     2       35.7424336      201.30861370    0.00000000
                                                     2        9.4529586       65.93997450    0.00000000
                                                     2        2.2543590       19.03007890    0.00000000
                                      P - D
                                                     0       88.9379355        5.00000000    0.00000000
                                                     1       76.7773538        6.64138170    0.00000000
                                                     2       56.1480987      247.59724160    0.00000000
                                                     2       21.1874014      129.37153800    0.00000000
                                                     2        6.8277276       47.46171070    0.00000000
                                                     2        2.1001192       11.73765740    0.00000000
   40         14
                                   No pseudopotential on this center.
   41         14
                                   No pseudopotential on this center.
   42         14
                                   No pseudopotential on this center.
   43         14
                                   No pseudopotential on this center.
   44         14
                                   No pseudopotential on this center.
   45         14
                                   No pseudopotential on this center.
   46         14
                                   No pseudopotential on this center.
   47         14
                                   No pseudopotential on this center.
   48         14
                                   No pseudopotential on this center.
   49         14
                                   No pseudopotential on this center.
   50         14
                                   No pseudopotential on this center.
   51         14
                                   No pseudopotential on this center.
   52         14
                                   No pseudopotential on this center.
   53         14
                                   No pseudopotential on this center.
   54         14
                                   No pseudopotential on this center.
   55         14
                                   No pseudopotential on this center.
   56         14
                                   No pseudopotential on this center.
   57         14
                                   No pseudopotential on this center.
   58         14
                                   No pseudopotential on this center.
   59         14
                                   No pseudopotential on this center.
   60         14
                                   No pseudopotential on this center.
   61         14
                                   No pseudopotential on this center.
   62         83            5
                                      G and up 
                                                     0      223.3091971       -0.18335200    0.00000000
                                                     1       86.4699216      -53.33894920    0.00000000
                                                     2       26.8492203     -201.91178410    0.00000000
                                                     2        9.3823622      -76.31152950    0.00000000
                                                     2        2.7614708      -24.25784680    0.00000000
                                                     2        0.9423923       -4.03197000    0.00000000
                                      S - G
                                                     0      155.9783914        2.79165100    0.00000000
                                                     1       54.4591139       71.85538170    0.00000000
                                                     2       20.1794558      252.43274440    0.00000000
                                                     2        6.1273104       89.60451090    0.00000000
                                                     2        1.1805983       61.17441360    0.00000000
                                                     2        0.9932464      -33.04719060    0.00000000
                                      P - G
                                                     0       74.5091386        4.84629140    0.00000000
                                                     1       28.0487647       65.68833960    0.00000000
                                                     2       12.0168508      166.26196730    0.00000000
                                                     2        3.6914327       54.13933290    0.00000000
                                                     2        0.9080824       28.62048800    0.00000000
                                                     2        0.7394617      -12.34522040    0.00000000
                                      D - G
                                                     0       68.0856679        3.21838320    0.00000000
                                                     1       23.7250355       54.89526810    0.00000000
                                                     2        9.2437053      116.55407080    0.00000000
                                                     2        1.8452292       69.07606620    0.00000000
                                                     2        1.2209859      -72.64108700    0.00000000
                                                     2        0.8740861       38.94000550    0.00000000
                                      F - G
                                                     0      134.3538983        3.98640750    0.00000000
                                                     1       51.5812797       63.02620780    0.00000000
                                                     2       54.9307284       92.52599590    0.00000000
                                                     2       17.0475346      240.99736720    0.00000000
                                                     2        3.7702824       62.18445770    0.00000000
                                                     2        0.7670500       -1.72511340    0.00000000
 ======================================================================================================
 There are   795 symmetry adapted cartesian basis functions of A   symmetry.
 There are   772 symmetry adapted basis functions of A   symmetry.
   772 basis functions,  1317 primitive gaussians,   795 cartesian basis functions
   193 alpha electrons      192 beta electrons
       nuclear repulsion energy      6592.0495055536 Hartrees.
 NAtoms=   62 NActive=   62 NUniq=   62 SFac= 1.00D+00 NAtFMM=   60 NAOKFM=T Big=T
 Integral buffers will be    131072 words long.
 Raffenetti 2 integral format.
 Two-electron integral symmetry is turned on.
 One-electron integrals computed using PRISM.
   1 Symmetry operations used in ECPInt.
 ECPInt:  NShTT=   72390 NPrTT=  247411 LenC2=   47953 LenP2D=  103528.
 LDataN:  DoStor=T MaxTD1= 6 Len=  172
 Number of processors reduced to   9 by ecpmxn.
 NBasis=   772 RedAO= T EigKep=  3.80D-05  NBF=   772
 NBsUse=   772 1.00D-06 EigRej= -1.00D+00 NBFU=   772
 Defaulting to unpruned grid for atomic number  83.
 ExpMin= 2.04D-02 ExpMax= 6.94D+04 ExpMxC= 2.33D+03 IAcc=3 IRadAn=         5 AccDes= 0.00D+00
 Harris functional with IExCor=  402 and IRadAn=       5 diagonalized for initial guess.
 HarFok:  IExCor=  402 AccDes= 0.00D+00 IRadAn=         5 IDoV= 1 UseB2=F ITyADJ=14
 ICtDFT=  3500011 ScaDFX=  1.000000  1.000000  1.000000  1.000000
 Defaulting to unpruned grid for atomic number  83.
 FoFCou: FMM=F IPFlag=           0 FMFlag=      100000 FMFlg1=        2001
         NFxFlg=           0 DoJE=T BraDBF=F KetDBF=T FulRan=T
         wScrn=  0.000000 ICntrl=       500 IOpCl=  0 I1Cent=   200000004 NGrid=           0
         NMat0=    1 NMatS0=      1 NMatT0=    0 NMatD0=    1 NMtDS0=    0 NMtDT0=    0
 Petite list used in FoFCou.
 Initial guess <Sx>= 0.0000 <Sy>= 0.0000 <Sz>= 0.5000 <S**2>= 0.7500 S= 0.5000
 Requested convergence on RMS density matrix=1.00D-08 within 128 cycles.
 Requested convergence on MAX density matrix=1.00D-06.
 Requested convergence on             energy=1.00D-06.
 No special actions if energy rises.
 Defaulting to unpruned grid for atomic number  83.
 Defaulting to unpruned grid for atomic number  83.
 Defaulting to unpruned grid for atomic number  83.
 Defaulting to unpruned grid for atomic number  83.
 Defaulting to unpruned grid for atomic number  83.
 Defaulting to unpruned grid for atomic number  83.
 Defaulting to unpruned grid for atomic number  83.
 Defaulting to unpruned grid for atomic number  83.
 Defaulting to unpruned grid for atomic number  83.
 Defaulting to unpruned grid for atomic number  83.
 Defaulting to unpruned grid for atomic number  83.
 Defaulting to unpruned grid for atomic number  83.
 Restarting incremental Fock formation.
 SCF Done:  E(UB3LYP) =  -6434.37894803     A.U. after   24 cycles
            NFock= 24  Conv=0.49D-08     -V/T= 2.0064
 <Sx>= 0.0000 <Sy>= 0.0000 <Sz>= 0.5000 <S**2>= 0.7556 S= 0.5028
 <L.S>= 0.000000000000E+00
 Annihilation of the first spin contaminant:
 S**2 before annihilation     0.7556,   after     0.7500
 DoSCS=F DFT=T ScalE2(SS,OS)=  1.000000  1.000000
 Range of M.O.s used for correlation:     1   772
 NBasis=   772 NAE=   193 NBE=   192 NFC=     0 NFV=     0
 NROrb=    772 NOA=   193 NOB=   192 NVA=   579 NVB=   580

 **** Warning!!: The largest alpha MO coefficient is  0.29551507D+02


 **** Warning!!: The smallest alpha delta epsilon is  0.69068012D-01


 **** Warning!!: The largest beta MO coefficient is  0.29262288D+02


 **** Warning!!: The smallest beta delta epsilon is  0.67994371D-01

 PrsmSu:  requested number of processors reduced to:   1 ShMem   1 Linda.
   1 Symmetry operations used in ECPInt.
 ECPInt:  NShTT=   72390 NPrTT=  247411 LenC2=   47953 LenP2D=  103528.
 LDataN:  DoStor=T MaxTD1= 7 Len=  274
 Number of processors reduced to   1 by ecpmxn.
 Symmetrizing basis deriv contribution to polar:
 IMax=3 JMax=2 DiffMx= 0.00D+00
 G2DrvN: will do     1 centers at a time, making   63 passes.
 Calling FoFCou, ICntrl=  3107 FMM=T I1Cent=   0 AccDes= 0.00D+00.
 Defaulting to unpruned grid for atomic number  83.
 Defaulting to unpruned grid for atomic number  83.
 Defaulting to unpruned grid for atomic number  83.
 Defaulting to unpruned grid for atomic number  83.
 Defaulting to unpruned grid for atomic number  83.
 Defaulting to unpruned grid for atomic number  83.
 Defaulting to unpruned grid for atomic number  83.
 Defaulting to unpruned grid for atomic number  83.
 Defaulting to unpruned grid for atomic number  83.
 Defaulting to unpruned grid for atomic number  83.
 Defaulting to unpruned grid for atomic number  83.
 Defaulting to unpruned grid for atomic number  83.
 Calling FoFCou, ICntrl=  3107 FMM=T I1Cent=   0 AccDes= 0.00D+00.
 Calling FoFCou, ICntrl=  3107 FMM=T I1Cent=   0 AccDes= 0.00D+00.
 Calling FoFCou, ICntrl=  3107 FMM=T I1Cent=   0 AccDes= 0.00D+00.
 Calling FoFCou, ICntrl=  3107 FMM=T I1Cent=   0 AccDes= 0.00D+00.
 Calling FoFCou, ICntrl=  3107 FMM=T I1Cent=   0 AccDes= 0.00D+00.
 Calling FoFCou, ICntrl=  3107 FMM=T I1Cent=   0 AccDes= 0.00D+00.
 Calling FoFCou, ICntrl=  3107 FMM=T I1Cent=   0 AccDes= 0.00D+00.
 Calling FoFCou, ICntrl=  3107 FMM=T I1Cent=   0 AccDes= 0.00D+00.
 Calling FoFCou, ICntrl=  3107 FMM=T I1Cent=   0 AccDes= 0.00D+00.
 Calling FoFCou, ICntrl=  3107 FMM=T I1Cent=   0 AccDes= 0.00D+00.
 Calling FoFCou, ICntrl=  3107 FMM=T I1Cent=   0 AccDes= 0.00D+00.
 Calling FoFCou, ICntrl=  3107 FMM=T I1Cent=   0 AccDes= 0.00D+00.
 Calling FoFCou, ICntrl=  3107 FMM=T I1Cent=   0 AccDes= 0.00D+00.
 Calling FoFCou, ICntrl=  3107 FMM=T I1Cent=   0 AccDes= 0.00D+00.
 Calling FoFCou, ICntrl=  3107 FMM=T I1Cent=   0 AccDes= 0.00D+00.
 Calling FoFCou, ICntrl=  3107 FMM=T I1Cent=   0 AccDes= 0.00D+00.
 Calling FoFCou, ICntrl=  3107 FMM=T I1Cent=   0 AccDes= 0.00D+00.
 Calling FoFCou, ICntrl=  3107 FMM=T I1Cent=   0 AccDes= 0.00D+00.
 Calling FoFCou, ICntrl=  3107 FMM=T I1Cent=   0 AccDes= 0.00D+00.
 Calling FoFCou, ICntrl=  3107 FMM=T I1Cent=   0 AccDes= 0.00D+00.
 Calling FoFCou, ICntrl=  3107 FMM=T I1Cent=   0 AccDes= 0.00D+00.
 Calling FoFCou, ICntrl=  3107 FMM=T I1Cent=   0 AccDes= 0.00D+00.
 Calling FoFCou, ICntrl=  3107 FMM=T I1Cent=   0 AccDes= 0.00D+00.
 Calling FoFCou, ICntrl=  3107 FMM=T I1Cent=   0 AccDes= 0.00D+00.
 Calling FoFCou, ICntrl=  3107 FMM=T I1Cent=   0 AccDes= 0.00D+00.
 Calling FoFCou, ICntrl=  3107 FMM=T I1Cent=   0 AccDes= 0.00D+00.
 Calling FoFCou, ICntrl=  3107 FMM=T I1Cent=   0 AccDes= 0.00D+00.
 Calling FoFCou, ICntrl=  3107 FMM=T I1Cent=   0 AccDes= 0.00D+00.
 Calling FoFCou, ICntrl=  3107 FMM=T I1Cent=   0 AccDes= 0.00D+00.
 Calling FoFCou, ICntrl=  3107 FMM=T I1Cent=   0 AccDes= 0.00D+00.
 Calling FoFCou, ICntrl=  3107 FMM=T I1Cent=   0 AccDes= 0.00D+00.
 Calling FoFCou, ICntrl=  3107 FMM=T I1Cent=   0 AccDes= 0.00D+00.
 Calling FoFCou, ICntrl=  3107 FMM=T I1Cent=   0 AccDes= 0.00D+00.
 Calling FoFCou, ICntrl=  3107 FMM=T I1Cent=   0 AccDes= 0.00D+00.
 Calling FoFCou, ICntrl=  3107 FMM=T I1Cent=   0 AccDes= 0.00D+00.
 Calling FoFCou, ICntrl=  3107 FMM=T I1Cent=   0 AccDes= 0.00D+00.
 Calling FoFCou, ICntrl=  3107 FMM=T I1Cent=   0 AccDes= 0.00D+00.
 Calling FoFCou, ICntrl=  3107 FMM=T I1Cent=   0 AccDes= 0.00D+00.
 Calling FoFCou, ICntrl=  3107 FMM=T I1Cent=   0 AccDes= 0.00D+00.
 Calling FoFCou, ICntrl=  3107 FMM=T I1Cent=   0 AccDes= 0.00D+00.
 Calling FoFCou, ICntrl=  3107 FMM=T I1Cent=   0 AccDes= 0.00D+00.
 Calling FoFCou, ICntrl=  3107 FMM=T I1Cent=   0 AccDes= 0.00D+00.
 Calling FoFCou, ICntrl=  3107 FMM=T I1Cent=   0 AccDes= 0.00D+00.
 Calling FoFCou, ICntrl=  3107 FMM=T I1Cent=   0 AccDes= 0.00D+00.
 Calling FoFCou, ICntrl=  3107 FMM=T I1Cent=   0 AccDes= 0.00D+00.
 Calling FoFCou, ICntrl=  3107 FMM=T I1Cent=   0 AccDes= 0.00D+00.
 Calling FoFCou, ICntrl=  3107 FMM=T I1Cent=   0 AccDes= 0.00D+00.
 Calling FoFCou, ICntrl=  3107 FMM=T I1Cent=   0 AccDes= 0.00D+00.
 Calling FoFCou, ICntrl=  3107 FMM=T I1Cent=   0 AccDes= 0.00D+00.
 Calling FoFCou, ICntrl=  3107 FMM=T I1Cent=   0 AccDes= 0.00D+00.
 Calling FoFCou, ICntrl=  3107 FMM=T I1Cent=   0 AccDes= 0.00D+00.
 Calling FoFCou, ICntrl=  3107 FMM=T I1Cent=   0 AccDes= 0.00D+00.
 Calling FoFCou, ICntrl=  3107 FMM=T I1Cent=   0 AccDes= 0.00D+00.
 Calling FoFCou, ICntrl=  3107 FMM=T I1Cent=   0 AccDes= 0.00D+00.
 Calling FoFCou, ICntrl=  3107 FMM=T I1Cent=   0 AccDes= 0.00D+00.
 Calling FoFCou, ICntrl=  3107 FMM=T I1Cent=   0 AccDes= 0.00D+00.
 Calling FoFCou, ICntrl=  3107 FMM=T I1Cent=   0 AccDes= 0.00D+00.
 Calling FoFCou, ICntrl=  3107 FMM=T I1Cent=   0 AccDes= 0.00D+00.
 Calling FoFCou, ICntrl=  3107 FMM=T I1Cent=   0 AccDes= 0.00D+00.
 Calling FoFCou, ICntrl=  3107 FMM=T I1Cent=   0 AccDes= 0.00D+00.
 Calling FoFCou, ICntrl=  3107 FMM=T I1Cent=   0 AccDes= 0.00D+00.
 Calling FoFCou, ICntrl=  3107 FMM=T I1Cent=   0 AccDes= 0.00D+00.
 End of G2Drv F.D. properties file   721 does not exist.
 End of G2Drv F.D. properties file   722 does not exist.
 End of G2Drv F.D. properties file   788 does not exist.
          IDoAtm=00000000000000000000000000001111111111111111111111
          IDoAtm=111111111111
          Differentiating once with respect to electric field.
                with respect to dipole field.
          Differentiating once with respect to nuclear coordinates.
 Defaulting to unpruned grid for atomic number  83.
 CalDSu exits because no D1Ps are significant.
 Defaulting to unpruned grid for atomic number  83.
 Defaulting to unpruned grid for atomic number  83.
 Defaulting to unpruned grid for atomic number  83.
 Defaulting to unpruned grid for atomic number  83.
 Defaulting to unpruned grid for atomic number  83.
 Defaulting to unpruned grid for atomic number  83.
 Defaulting to unpruned grid for atomic number  83.
 Defaulting to unpruned grid for atomic number  83.
 Defaulting to unpruned grid for atomic number  83.
 Defaulting to unpruned grid for atomic number  83.
 Defaulting to unpruned grid for atomic number  83.
 Defaulting to unpruned grid for atomic number  83.
          There are   105 degrees of freedom in the 1st order CPHF.  IDoFFX=6 NUNeed=     3.
    105 vectors produced by pass  0 Test12= 2.23D-13 1.00D-09 XBig12= 6.64D+03 1.45D+01.
 AX will form     3 AO Fock derivatives at one time.
    105 vectors produced by pass  1 Test12= 2.23D-13 1.00D-09 XBig12= 2.05D+03 2.50D+00.
    105 vectors produced by pass  2 Test12= 2.23D-13 1.00D-09 XBig12= 4.42D+01 6.10D-01.
    105 vectors produced by pass  3 Test12= 2.23D-13 1.00D-09 XBig12= 9.74D-01 1.32D-01.
    105 vectors produced by pass  4 Test12= 2.23D-13 1.00D-09 XBig12= 1.31D-02 1.31D-02.
    105 vectors produced by pass  5 Test12= 2.23D-13 1.00D-09 XBig12= 2.74D-04 1.49D-03.
    105 vectors produced by pass  6 Test12= 2.23D-13 1.00D-09 XBig12= 2.36D-06 1.49D-04.
    105 vectors produced by pass  7 Test12= 2.23D-13 1.00D-09 XBig12= 1.40D-08 9.61D-06.
     89 vectors produced by pass  8 Test12= 2.23D-13 1.00D-09 XBig12= 1.01D-10 6.86D-07.
     71 vectors produced by pass  9 Test12= 2.23D-13 1.00D-09 XBig12= 1.16D-12 6.93D-08.
     62 vectors produced by pass 10 Test12= 2.23D-13 1.00D-09 XBig12= 1.41D-14 6.46D-09.
     57 vectors produced by pass 11 Test12= 2.23D-13 1.00D-09 XBig12= 1.02D-14 3.68D-09.
     56 vectors produced by pass 12 Test12= 2.23D-13 1.00D-09 XBig12= 1.03D-14 4.54D-09.
     51 vectors produced by pass 13 Test12= 2.23D-13 1.00D-09 XBig12= 1.13D-14 3.76D-09.
     48 vectors produced by pass 14 Test12= 2.23D-13 1.00D-09 XBig12= 6.88D-15 2.92D-09.
     46 vectors produced by pass 15 Test12= 2.23D-13 1.00D-09 XBig12= 9.17D-15 3.21D-09.
     40 vectors produced by pass 16 Test12= 2.23D-13 1.00D-09 XBig12= 9.35D-15 3.46D-09.
     36 vectors produced by pass 17 Test12= 2.23D-13 1.00D-09 XBig12= 5.61D-15 2.55D-09.
     32 vectors produced by pass 18 Test12= 2.23D-13 1.00D-09 XBig12= 6.55D-15 2.45D-09.
     25 vectors produced by pass 19 Test12= 2.23D-13 1.00D-09 XBig12= 3.64D-15 1.94D-09.
     19 vectors produced by pass 20 Test12= 2.23D-13 1.00D-09 XBig12= 4.81D-15 2.51D-09.
     14 vectors produced by pass 21 Test12= 2.23D-13 1.00D-09 XBig12= 3.32D-15 1.62D-09.
      8 vectors produced by pass 22 Test12= 2.23D-13 1.00D-09 XBig12= 5.25D-15 2.12D-09.
      5 vectors produced by pass 23 Test12= 2.23D-13 1.00D-09 XBig12= 1.91D-15 1.23D-09.
      5 vectors produced by pass 24 Test12= 2.23D-13 1.00D-09 XBig12= 2.54D-15 1.59D-09.
      1 vectors produced by pass 25 Test12= 2.23D-13 1.00D-09 XBig12= 1.31D-15 1.31D-09.
 InvSVY:  IOpt=1 It=  1 EMax= 1.71D-14
 Solved reduced A of dimension  1505 with   105 vectors.
 Isotropic polarizability for W=    0.000000     1192.91 Bohr**3.
 End of Minotr F.D. properties file   721 does not exist.
 End of Minotr F.D. properties file   722 does not exist.
 End of Minotr F.D. properties file   788 does not exist.

 **********************************************************************

            Population analysis using the SCF density.

 **********************************************************************

 Orbital symmetries:
 Alpha Orbitals:
       Occupied  (A) (A) (A) (A) (A) (A) (A) (A) (A) (A) (A) (A)
                 (A) (A) (A) (A) (A) (A) (A) (A) (A) (A) (A) (A)
                 (A) (A) (A) (A) (A) (A) (A) (A) (A) (A) (A) (A)
                 (A) (A) (A) (A) (A) (A) (A) (A) (A) (A) (A) (A)
                 (A) (A) (A) (A) (A) (A) (A) (A) (A) (A) (A) (A)
                 (A) (A) (A) (A) (A) (A) (A) (A) (A) (A) (A) (A)
                 (A) (A) (A) (A) (A) (A) (A) (A) (A) (A) (A) (A)
                 (A) (A) (A) (A) (A) (A) (A) (A) (A) (A) (A) (A)
                 (A) (A) (A) (A) (A) (A) (A) (A) (A) (A) (A) (A)
                 (A) (A) (A) (A) (A) (A) (A) (A) (A) (A) (A) (A)
                 (A) (A) (A) (A) (A) (A) (A) (A) (A) (A) (A) (A)
                 (A) (A) (A) (A) (A) (A) (A) (A) (A) (A) (A) (A)
                 (A) (A) (A) (A) (A) (A) (A) (A) (A) (A) (A) (A)
                 (A) (A) (A) (A) (A) (A) (A) (A) (A) (A) (A) (A)
                 (A) (A) (A) (A) (A) (A) (A) (A) (A) (A) (A) (A)
                 (A) (A) (A) (A) (A) (A) (A) (A) (A) (A) (A) (A)
                 (A)
       Virtual   (A) (A) (A) (A) (A) (A) (A) (A) (A) (A) (A) (A)
                 (A) (A) (A) (A) (A) (A) (A) (A) (A) (A) (A) (A)
                 (A) (A) (A) (A) (A) (A) (A) (A) (A) (A) (A) (A)
                 (A) (A) (A) (A) (A) (A) (A) (A) (A) (A) (A) (A)
                 (A) (A) (A) (A) (A) (A) (A) (A) (A) (A) (A) (A)
                 (A) (A) (A) (A) (A) (A) (A) (A) (A) (A) (A) (A)
                 (A) (A) (A) (A) (A) (A) (A) (A) (A) (A) (A) (A)
                 (A) (A) (A) (A) (A) (A) (A) (A) (A) (A) (A) (A)
                 (A) (A) (A) (A) (A) (A) (A) (A) (A) (A) (A) (A)
                 (A) (A) (A) (A) (A) (A) (A) (A) (A) (A) (A) (A)
                 (A) (A) (A) (A) (A) (A) (A) (A) (A) (A) (A) (A)
                 (A) (A) (A) (A) (A) (A) (A) (A) (A) (A) (A) (A)
                 (A) (A) (A) (A) (A) (A) (A) (A) (A) (A) (A) (A)
                 (A) (A) (A) (A) (A) (A) (A) (A) (A) (A) (A) (A)
                 (A) (A) (A) (A) (A) (A) (A) (A) (A) (A) (A) (A)
                 (A) (A) (A) (A) (A) (A) (A) (A) (A) (A) (A) (A)
                 (A) (A) (A) (A) (A) (A) (A) (A) (A) (A) (A) (A)
                 (A) (A) (A) (A) (A) (A) (A) (A) (A) (A) (A) (A)
                 (A) (A) (A) (A) (A) (A) (A) (A) (A) (A) (A) (A)
                 (A) (A) (A) (A) (A) (A) (A) (A) (A) (A) (A) (A)
                 (A) (A) (A) (A) (A) (A) (A) (A) (A) (A) (A) (A)
                 (A) (A) (A) (A) (A) (A) (A) (A) (A) (A) (A) (A)
                 (A) (A) (A) (A) (A) (A) (A) (A) (A) (A) (A) (A)
                 (A) (A) (A) (A) (A) (A) (A) (A) (A) (A) (A) (A)
                 (A) (A) (A) (A) (A) (A) (A) (A) (A) (A) (A) (A)
                 (A) (A) (A) (A) (A) (A) (A) (A) (A) (A) (A) (A)
                 (A) (A) (A) (A) (A) (A) (A) (A) (A) (A) (A) (A)
                 (A) (A) (A) (A) (A) (A) (A) (A) (A) (A) (A) (A)
                 (A) (A) (A) (A) (A) (A) (A) (A) (A) (A) (A) (A)
                 (A) (A) (A) (A) (A) (A) (A) (A) (A) (A) (A) (A)
                 (A) (A) (A) (A) (A) (A) (A) (A) (A) (A) (A) (A)
                 (A) (A) (A) (A) (A) (A) (A) (A) (A) (A) (A) (A)
                 (A) (A) (A) (A) (A) (A) (A) (A) (A) (A) (A) (A)
                 (A) (A) (A) (A) (A) (A) (A) (A) (A) (A) (A) (A)
                 (A) (A) (A) (A) (A) (A) (A) (A) (A) (A) (A) (A)
                 (A) (A) (A) (A) (A) (A) (A) (A) (A) (A) (A) (A)
                 (A) (A) (A) (A) (A) (A) (A) (A) (A) (A) (A) (A)
                 (A) (A) (A) (A) (A) (A) (A) (A) (A) (A) (A) (A)
                 (A) (A) (A) (A) (A) (A) (A) (A) (A) (A) (A) (A)
                 (A) (A) (A) (A) (A) (A) (A) (A) (A) (A) (A) (A)
                 (A) (A) (A) (A) (A) (A) (A) (A) (A) (A) (A) (A)
                 (A) (A) (A) (A) (A) (A) (A) (A) (A) (A) (A) (A)
                 (A) (A) (A) (A) (A) (A) (A) (A) (A) (A) (A) (A)
                 (A) (A) (A) (A) (A) (A) (A) (A) (A) (A) (A) (A)
                 (A) (A) (A) (A) (A) (A) (A) (A) (A) (A) (A) (A)
                 (A) (A) (A) (A) (A) (A) (A) (A) (A) (A) (A) (A)
                 (A) (A) (A) (A) (A) (A) (A) (A) (A) (A) (A) (A)
                 (A) (A) (A) (A) (A) (A) (A) (A) (A) (A) (A) (A)
                 (A) (A) (A)
 Beta  Orbitals:
       Occupied  (A) (A) (A) (A) (A) (A) (A) (A) (A) (A) (A) (A)
                 (A) (A) (A) (A) (A) (A) (A) (A) (A) (A) (A) (A)
                 (A) (A) (A) (A) (A) (A) (A) (A) (A) (A) (A) (A)
                 (A) (A) (A) (A) (A) (A) (A) (A) (A) (A) (A) (A)
                 (A) (A) (A) (A) (A) (A) (A) (A) (A) (A) (A) (A)
                 (A) (A) (A) (A) (A) (A) (A) (A) (A) (A) (A) (A)
                 (A) (A) (A) (A) (A) (A) (A) (A) (A) (A) (A) (A)
                 (A) (A) (A) (A) (A) (A) (A) (A) (A) (A) (A) (A)
                 (A) (A) (A) (A) (A) (A) (A) (A) (A) (A) (A) (A)
                 (A) (A) (A) (A) (A) (A) (A) (A) (A) (A) (A) (A)
                 (A) (A) (A) (A) (A) (A) (A) (A) (A) (A) (A) (A)
                 (A) (A) (A) (A) (A) (A) (A) (A) (A) (A) (A) (A)
                 (A) (A) (A) (A) (A) (A) (A) (A) (A) (A) (A) (A)
                 (A) (A) (A) (A) (A) (A) (A) (A) (A) (A) (A) (A)
                 (A) (A) (A) (A) (A) (A) (A) (A) (A) (A) (A) (A)
                 (A) (A) (A) (A) (A) (A) (A) (A) (A) (A) (A) (A)
       Virtual   (A) (A) (A) (A) (A) (A) (A) (A) (A) (A) (A) (A)
                 (A) (A) (A) (A) (A) (A) (A) (A) (A) (A) (A) (A)
                 (A) (A) (A) (A) (A) (A) (A) (A) (A) (A) (A) (A)
                 (A) (A) (A) (A) (A) (A) (A) (A) (A) (A) (A) (A)
                 (A) (A) (A) (A) (A) (A) (A) (A) (A) (A) (A) (A)
                 (A) (A) (A) (A) (A) (A) (A) (A) (A) (A) (A) (A)
                 (A) (A) (A) (A) (A) (A) (A) (A) (A) (A) (A) (A)
                 (A) (A) (A) (A) (A) (A) (A) (A) (A) (A) (A) (A)
                 (A) (A) (A) (A) (A) (A) (A) (A) (A) (A) (A) (A)
                 (A) (A) (A) (A) (A) (A) (A) (A) (A) (A) (A) (A)
                 (A) (A) (A) (A) (A) (A) (A) (A) (A) (A) (A) (A)
                 (A) (A) (A) (A) (A) (A) (A) (A) (A) (A) (A) (A)
                 (A) (A) (A) (A) (A) (A) (A) (A) (A) (A) (A) (A)
                 (A) (A) (A) (A) (A) (A) (A) (A) (A) (A) (A) (A)
                 (A) (A) (A) (A) (A) (A) (A) (A) (A) (A) (A) (A)
                 (A) (A) (A) (A) (A) (A) (A) (A) (A) (A) (A) (A)
                 (A) (A) (A) (A) (A) (A) (A) (A) (A) (A) (A) (A)
                 (A) (A) (A) (A) (A) (A) (A) (A) (A) (A) (A) (A)
                 (A) (A) (A) (A) (A) (A) (A) (A) (A) (A) (A) (A)
                 (A) (A) (A) (A) (A) (A) (A) (A) (A) (A) (A) (A)
                 (A) (A) (A) (A) (A) (A) (A) (A) (A) (A) (A) (A)
                 (A) (A) (A) (A) (A) (A) (A) (A) (A) (A) (A) (A)
                 (A) (A) (A) (A) (A) (A) (A) (A) (A) (A) (A) (A)
                 (A) (A) (A) (A) (A) (A) (A) (A) (A) (A) (A) (A)
                 (A) (A) (A) (A) (A) (A) (A) (A) (A) (A) (A) (A)
                 (A) (A) (A) (A) (A) (A) (A) (A) (A) (A) (A) (A)
                 (A) (A) (A) (A) (A) (A) (A) (A) (A) (A) (A) (A)
                 (A) (A) (A) (A) (A) (A) (A) (A) (A) (A) (A) (A)
                 (A) (A) (A) (A) (A) (A) (A) (A) (A) (A) (A) (A)
                 (A) (A) (A) (A) (A) (A) (A) (A) (A) (A) (A) (A)
                 (A) (A) (A) (A) (A) (A) (A) (A) (A) (A) (A) (A)
                 (A) (A) (A) (A) (A) (A) (A) (A) (A) (A) (A) (A)
                 (A) (A) (A) (A) (A) (A) (A) (A) (A) (A) (A) (A)
                 (A) (A) (A) (A) (A) (A) (A) (A) (A) (A) (A) (A)
                 (A) (A) (A) (A) (A) (A) (A) (A) (A) (A) (A) (A)
                 (A) (A) (A) (A) (A) (A) (A) (A) (A) (A) (A) (A)
                 (A) (A) (A) (A) (A) (A) (A) (A) (A) (A) (A) (A)
                 (A) (A) (A) (A) (A) (A) (A) (A) (A) (A) (A) (A)
                 (A) (A) (A) (A) (A) (A) (A) (A) (A) (A) (A) (A)
                 (A) (A) (A) (A) (A) (A) (A) (A) (A) (A) (A) (A)
                 (A) (A) (A) (A) (A) (A) (A) (A) (A) (A) (A) (A)
                 (A) (A) (A) (A) (A) (A) (A) (A) (A) (A) (A) (A)
                 (A) (A) (A) (A) (A) (A) (A) (A) (A) (A) (A) (A)
                 (A) (A) (A) (A) (A) (A) (A) (A) (A) (A) (A) (A)
                 (A) (A) (A) (A) (A) (A) (A) (A) (A) (A) (A) (A)
                 (A) (A) (A) (A) (A) (A) (A) (A) (A) (A) (A) (A)
                 (A) (A) (A) (A) (A) (A) (A) (A) (A) (A) (A) (A)
                 (A) (A) (A) (A) (A) (A) (A) (A) (A) (A) (A) (A)
                 (A) (A) (A) (A)
 The electronic state is 2-A.
 Alpha  occ. eigenvalues --  -66.13063 -66.13056 -66.12791 -66.12788 -66.11208
 Alpha  occ. eigenvalues --  -66.11206 -66.11147 -66.11146 -66.11086 -66.11084
 Alpha  occ. eigenvalues --  -66.11065 -66.11065 -66.10212 -66.10142 -66.10138
 Alpha  occ. eigenvalues --  -66.10095 -66.10094 -66.09183 -66.08568 -66.08566
 Alpha  occ. eigenvalues --  -66.08565 -66.08562  -5.30240  -5.30234  -5.30005
 Alpha  occ. eigenvalues --   -5.30002  -5.28638  -5.28637  -5.28593  -5.28591
 Alpha  occ. eigenvalues --   -5.28380  -5.28379  -5.28347  -5.28346  -5.27517
 Alpha  occ. eigenvalues --   -5.27435  -5.27434  -5.27418  -5.27414  -5.26514
 Alpha  occ. eigenvalues --   -5.25734  -5.25732  -5.25708  -5.25705  -3.66445
 Alpha  occ. eigenvalues --   -3.66438  -3.66192  -3.66189  -3.65851  -3.65844
 Alpha  occ. eigenvalues --   -3.65728  -3.65721  -3.65618  -3.65615  -3.65503
 Alpha  occ. eigenvalues --   -3.65500  -3.64473  -3.64471  -3.64441  -3.64440
 Alpha  occ. eigenvalues --   -3.64422  -3.64419  -3.64398  -3.64396  -3.64352
 Alpha  occ. eigenvalues --   -3.64351  -3.64315  -3.64313  -3.64240  -3.64239
 Alpha  occ. eigenvalues --   -3.64209  -3.64209  -3.64185  -3.64184  -3.64150
 Alpha  occ. eigenvalues --   -3.64150  -3.64083  -3.64082  -3.64051  -3.64051
 Alpha  occ. eigenvalues --   -3.63349  -3.63333  -3.63276  -3.63275  -3.63255
 Alpha  occ. eigenvalues --   -3.63251  -3.63232  -3.63231  -3.63225  -3.63221
 Alpha  occ. eigenvalues --   -3.63214  -3.63176  -3.63176  -3.63153  -3.63150
 Alpha  occ. eigenvalues --   -3.62349  -3.62276  -3.62244  -3.61564  -3.61562
 Alpha  occ. eigenvalues --   -3.61535  -3.61532  -3.61516  -3.61514  -3.61496
 Alpha  occ. eigenvalues --   -3.61493  -3.61416  -3.61414  -3.61378  -3.61375
 Alpha  occ. eigenvalues --   -0.64662  -0.63776  -0.63265  -0.61350  -0.61081
 Alpha  occ. eigenvalues --   -0.59027  -0.57688  -0.57527  -0.57323  -0.56189
 Alpha  occ. eigenvalues --   -0.55696  -0.55547  -0.54947  -0.54606  -0.53780
 Alpha  occ. eigenvalues --   -0.53472  -0.52544  -0.52081  -0.51429  -0.50815
 Alpha  occ. eigenvalues --   -0.48554  -0.47420  -0.46800  -0.46608  -0.46325
 Alpha  occ. eigenvalues --   -0.44252  -0.43799  -0.43343  -0.42973  -0.42632
 Alpha  occ. eigenvalues --   -0.41449  -0.40683  -0.40297  -0.40233  -0.38649
 Alpha  occ. eigenvalues --   -0.38645  -0.38170  -0.38166  -0.37959  -0.37861
 Alpha  occ. eigenvalues --   -0.37621  -0.37584  -0.37078  -0.36767  -0.36004
 Alpha  occ. eigenvalues --   -0.35856  -0.35784  -0.35029  -0.34659  -0.33260
 Alpha  occ. eigenvalues --   -0.32765  -0.32538  -0.31644  -0.31252  -0.30875
 Alpha  occ. eigenvalues --   -0.29712  -0.29697  -0.29443  -0.29347  -0.29124
 Alpha  occ. eigenvalues --   -0.29053  -0.28818  -0.28789  -0.28533  -0.28318
 Alpha  occ. eigenvalues --   -0.27694  -0.27375  -0.27329  -0.26982  -0.26939
 Alpha  occ. eigenvalues --   -0.26726  -0.26239  -0.25961  -0.24959  -0.24206
 Alpha  occ. eigenvalues --   -0.24134  -0.22656  -0.21734  -0.21529  -0.20950
 Alpha  occ. eigenvalues --   -0.20520  -0.20217  -0.19959
 Alpha virt. eigenvalues --   -0.13052  -0.12368  -0.11918  -0.11718  -0.07359
 Alpha virt. eigenvalues --   -0.06566  -0.06414  -0.04940  -0.04545  -0.04203
 Alpha virt. eigenvalues --   -0.04126  -0.03660  -0.03540  -0.03270  -0.03218
 Alpha virt. eigenvalues --   -0.02827  -0.02587  -0.02016  -0.01931  -0.01763
 Alpha virt. eigenvalues --   -0.01386  -0.01134  -0.00757  -0.00706  -0.00532
 Alpha virt. eigenvalues --   -0.00428  -0.00212  -0.00184   0.00287   0.00491
 Alpha virt. eigenvalues --    0.00606   0.00990   0.01054   0.01334   0.01724
 Alpha virt. eigenvalues --    0.01763   0.02121   0.02154   0.02406   0.02462
 Alpha virt. eigenvalues --    0.02603   0.03082   0.03154   0.03381   0.03489
 Alpha virt. eigenvalues --    0.03585   0.03771   0.03979   0.04117   0.04289
 Alpha virt. eigenvalues --    0.04367   0.04597   0.04619   0.04850   0.04892
 Alpha virt. eigenvalues --    0.05076   0.05115   0.05309   0.05309   0.05347
 Alpha virt. eigenvalues --    0.05559   0.05570   0.05727   0.05874   0.06111
 Alpha virt. eigenvalues --    0.06200   0.06420   0.06459   0.06732   0.06971
 Alpha virt. eigenvalues --    0.07102   0.07375   0.07474   0.07546   0.07953
 Alpha virt. eigenvalues --    0.08200   0.08231   0.08365   0.08641   0.08783
 Alpha virt. eigenvalues --    0.08891   0.09085   0.09104   0.09580   0.09622
 Alpha virt. eigenvalues --    0.09845   0.09975   0.10303   0.10480   0.10816
 Alpha virt. eigenvalues --    0.10903   0.11126   0.11279   0.11865   0.12282
 Alpha virt. eigenvalues --    0.12323   0.12505   0.12529   0.12895   0.12978
 Alpha virt. eigenvalues --    0.13352   0.13511   0.13625   0.14416   0.14642
 Alpha virt. eigenvalues --    0.15026   0.15109   0.15404   0.15663   0.15936
 Alpha virt. eigenvalues --    0.16374   0.16387   0.16762   0.17002   0.17161
 Alpha virt. eigenvalues --    0.17264   0.17307   0.17536   0.17669   0.18032
 Alpha virt. eigenvalues --    0.18263   0.18298   0.18687   0.18920   0.19483
 Alpha virt. eigenvalues --    0.19521   0.20021   0.20177   0.20484   0.20587
 Alpha virt. eigenvalues --    0.20655   0.20921   0.21247   0.22005   0.22007
 Alpha virt. eigenvalues --    0.22308   0.22530   0.22614   0.22907   0.23132
 Alpha virt. eigenvalues --    0.23133   0.23678   0.23989   0.24121   0.24427
 Alpha virt. eigenvalues --    0.24840   0.25298   0.25896   0.25991   0.26437
 Alpha virt. eigenvalues --    0.26543   0.26629   0.27019   0.27377   0.27631
 Alpha virt. eigenvalues --    0.27723   0.27725   0.28292   0.28466   0.28647
 Alpha virt. eigenvalues --    0.29114   0.29402   0.29424   0.29906   0.29970
 Alpha virt. eigenvalues --    0.30138   0.30221   0.30339   0.31052   0.31300
 Alpha virt. eigenvalues --    0.31325   0.31559   0.31859   0.32086   0.32420
 Alpha virt. eigenvalues --    0.32555   0.32832   0.32885   0.33503   0.33817
 Alpha virt. eigenvalues --    0.33853   0.34206   0.34756   0.34759   0.34895
 Alpha virt. eigenvalues --    0.35290   0.35627   0.35701   0.36020   0.36343
 Alpha virt. eigenvalues --    0.36529   0.36599   0.36869   0.36949   0.37027
 Alpha virt. eigenvalues --    0.37320   0.37740   0.38298   0.38417   0.38467
 Alpha virt. eigenvalues --    0.38630   0.39288   0.40033   0.40047   0.40218
 Alpha virt. eigenvalues --    0.40544   0.40936   0.41156   0.41501   0.42085
 Alpha virt. eigenvalues --    0.42456   0.42747   0.43387   0.43683   0.43968
 Alpha virt. eigenvalues --    0.44526   0.44559   0.45326   0.45883   0.45953
 Alpha virt. eigenvalues --    0.46411   0.47260   0.47288   0.47973   0.48413
 Alpha virt. eigenvalues --    0.48942   0.50112   0.50258   0.50328   0.51120
 Alpha virt. eigenvalues --    0.51219   0.51467   0.51611   0.52500   0.52569
 Alpha virt. eigenvalues --    0.52906   0.53468   0.53727   0.54019   0.54271
 Alpha virt. eigenvalues --    0.54738   0.54951   0.55883   0.55954   0.56088
 Alpha virt. eigenvalues --    0.56733   0.56808   0.56895   0.57132   0.57760
 Alpha virt. eigenvalues --    0.58112   0.58198   0.58808   0.58980   0.59221
 Alpha virt. eigenvalues --    0.59458   0.59743   0.59867   0.60433   0.60616
 Alpha virt. eigenvalues --    0.60621   0.60768   0.61262   0.61684   0.61768
 Alpha virt. eigenvalues --    0.62157   0.62292   0.62365   0.62949   0.62983
 Alpha virt. eigenvalues --    0.63881   0.63930   0.64611   0.64810   0.64943
 Alpha virt. eigenvalues --    0.65021   0.65181   0.65463   0.65912   0.66352
 Alpha virt. eigenvalues --    0.66678   0.66790   0.67046   0.67514   0.68096
 Alpha virt. eigenvalues --    0.68468   0.68951   0.69439   0.69679   0.69733
 Alpha virt. eigenvalues --    0.70100   0.70271   0.70471   0.70819   0.70987
 Alpha virt. eigenvalues --    0.71328   0.71340   0.71945   0.72035   0.72206
 Alpha virt. eigenvalues --    0.72388   0.72555   0.73261   0.73518   0.73966
 Alpha virt. eigenvalues --    0.74025   0.74040   0.74401   0.74617   0.74948
 Alpha virt. eigenvalues --    0.75480   0.75671   0.76282   0.76786   0.77054
 Alpha virt. eigenvalues --    0.77458   0.77822   0.78032   0.78578   0.78824
 Alpha virt. eigenvalues --    0.79035   0.79322   0.79621   0.80560   0.80577
 Alpha virt. eigenvalues --    0.81017   0.81460   0.82052   0.82691   0.83008
 Alpha virt. eigenvalues --    0.83467   0.84050   0.85818   0.85993   0.86104
 Alpha virt. eigenvalues --    0.86696   0.86952   0.88885   0.89223   0.90497
 Alpha virt. eigenvalues --    0.90611   0.91820   0.92164   0.92829   0.92937
 Alpha virt. eigenvalues --    0.93552   0.94697   0.95029   0.95556   0.95987
 Alpha virt. eigenvalues --    0.96315   0.97001   0.97695   0.97956   0.98293
 Alpha virt. eigenvalues --    0.99040   0.99402   0.99610   0.99784   1.00640
 Alpha virt. eigenvalues --    1.00866   1.01037   1.01642   1.02264   1.02915
 Alpha virt. eigenvalues --    1.05375   1.06456   1.07211   1.07900   1.09264
 Alpha virt. eigenvalues --    1.09374   1.09575   1.10059   1.11361   1.11734
 Alpha virt. eigenvalues --    1.12348   1.12632   1.13284   1.14871   1.15164
 Alpha virt. eigenvalues --    1.15231   1.16764   1.17603   1.19509   1.19588
 Alpha virt. eigenvalues --    1.20377   1.21066   1.21599   1.23497   1.23578
 Alpha virt. eigenvalues --    1.24100   1.24169   1.25144   1.26223   1.26241
 Alpha virt. eigenvalues --    1.27208   1.27359   1.27624   1.28140   1.28197
 Alpha virt. eigenvalues --    1.28500   1.30427   1.30735   1.31115   1.31514
 Alpha virt. eigenvalues --    1.31618   1.32372   1.32893   1.33217   1.34103
 Alpha virt. eigenvalues --    1.34237   1.35088   1.35537   1.36555   1.36700
 Alpha virt. eigenvalues --    1.37346   1.37438   1.37604   1.37796   1.38265
 Alpha virt. eigenvalues --    1.38552   1.38968   1.39025   1.39825   1.40376
 Alpha virt. eigenvalues --    1.41316   1.42083   1.42410   1.42463   1.42864
 Alpha virt. eigenvalues --    1.43060   1.43893   1.44104   1.44272   1.44754
 Alpha virt. eigenvalues --    1.45500   1.45732   1.46072   1.46823   1.47696
 Alpha virt. eigenvalues --    1.47716   1.48286   1.49145   1.49428   1.50350
 Alpha virt. eigenvalues --    1.50747   1.51291   1.52217   1.53038   1.53861
 Alpha virt. eigenvalues --    1.54020   1.54743   1.54905   1.57619   1.59912
 Alpha virt. eigenvalues --    1.60659   1.60865   5.37515   5.38365   5.40011
 Alpha virt. eigenvalues --    5.41224   5.41237   5.41428   5.42123   5.44730
 Alpha virt. eigenvalues --    5.45062   5.47501   5.48165   5.49678   5.50514
 Alpha virt. eigenvalues --    5.50907   5.52832   5.56005   5.56170   5.57356
 Alpha virt. eigenvalues --    5.57865   5.58646   5.60718   5.62651  11.15375
 Alpha virt. eigenvalues --   11.21780  11.22530  11.23233  11.23503  11.26811
 Alpha virt. eigenvalues --   11.27132  11.27856  11.27999  11.28271  11.28798
 Alpha virt. eigenvalues --   11.28900  11.29204  11.29974  11.30355  11.30636
 Alpha virt. eigenvalues --   11.30834  11.31514  11.31846  11.32196  11.32392
 Alpha virt. eigenvalues --   11.32593  11.33211  11.33345  11.33578  11.34268
 Alpha virt. eigenvalues --   11.34418  11.34651  11.35206  11.35366  11.35821
 Alpha virt. eigenvalues --   11.35884  11.36126  11.37076  11.37271  11.37607
 Alpha virt. eigenvalues --   11.37645  11.38008  11.38710  11.39230  11.40165
 Alpha virt. eigenvalues --   11.40525  11.41387  11.41462  11.41887  11.42236
 Alpha virt. eigenvalues --   11.42962  11.43671  11.44809  11.44842  11.45183
 Alpha virt. eigenvalues --   11.46280  11.46598  11.46692  11.47491  11.48461
 Alpha virt. eigenvalues --   11.48532  11.49219  11.50463  11.52289  11.54267
 Alpha virt. eigenvalues --   11.55235  11.55294  11.57780  11.58883  11.60023
 Alpha virt. eigenvalues --   11.60761  12.08292  12.17875  12.72443  13.07973
 Alpha virt. eigenvalues --   13.15368  14.31161  14.33270  14.85663  15.32590
 Alpha virt. eigenvalues --   15.52841  15.53674 140.82704 140.83069 140.85865
 Alpha virt. eigenvalues --  140.86787 140.86944 140.87084 140.88019 140.90878
 Alpha virt. eigenvalues --  140.91175 140.93382 140.94025 140.96111 140.96973
 Alpha virt. eigenvalues --  140.97523 140.99523 141.02813 141.03189 141.04266
 Alpha virt. eigenvalues --  141.04814 141.06079 141.09452 141.11387
  Beta  occ. eigenvalues --  -66.13062 -66.13054 -66.12791 -66.12788 -66.11200
  Beta  occ. eigenvalues --  -66.11197 -66.11147 -66.11146 -66.11086 -66.11084
  Beta  occ. eigenvalues --  -66.11064 -66.11064 -66.10232 -66.10132 -66.10128
  Beta  occ. eigenvalues --  -66.10095 -66.10094 -66.09202 -66.08567 -66.08565
  Beta  occ. eigenvalues --  -66.08563 -66.08559  -5.30239  -5.30232  -5.30005
  Beta  occ. eigenvalues --   -5.30002  -5.28638  -5.28637  -5.28584  -5.28581
  Beta  occ. eigenvalues --   -5.28380  -5.28379  -5.28346  -5.28345  -5.27538
  Beta  occ. eigenvalues --   -5.27435  -5.27434  -5.27407  -5.27403  -5.26534
  Beta  occ. eigenvalues --   -5.25733  -5.25731  -5.25704  -5.25701  -3.66438
  Beta  occ. eigenvalues --   -3.66431  -3.66193  -3.66190  -3.65850  -3.65844
  Beta  occ. eigenvalues --   -3.65726  -3.65720  -3.65618  -3.65615  -3.65503
  Beta  occ. eigenvalues --   -3.65500  -3.64472  -3.64471  -3.64441  -3.64440
  Beta  occ. eigenvalues --   -3.64414  -3.64411  -3.64384  -3.64382  -3.64352
  Beta  occ. eigenvalues --   -3.64351  -3.64304  -3.64302  -3.64240  -3.64239
  Beta  occ. eigenvalues --   -3.64208  -3.64208  -3.64185  -3.64184  -3.64148
  Beta  occ. eigenvalues --   -3.64148  -3.64083  -3.64082  -3.64049  -3.64049
  Beta  occ. eigenvalues --   -3.63377  -3.63352  -3.63276  -3.63275  -3.63244
  Beta  occ. eigenvalues --   -3.63231  -3.63231  -3.63231  -3.63227  -3.63213
  Beta  occ. eigenvalues --   -3.63209  -3.63176  -3.63176  -3.63146  -3.63143
  Beta  occ. eigenvalues --   -3.62383  -3.62298  -3.62262  -3.61564  -3.61562
  Beta  occ. eigenvalues --   -3.61532  -3.61529  -3.61516  -3.61514  -3.61494
  Beta  occ. eigenvalues --   -3.61491  -3.61415  -3.61413  -3.61374  -3.61371
  Beta  occ. eigenvalues --   -0.64381  -0.63768  -0.62817  -0.61070  -0.60379
  Beta  occ. eigenvalues --   -0.58854  -0.57676  -0.57335  -0.57314  -0.56126
  Beta  occ. eigenvalues --   -0.55538  -0.55528  -0.54935  -0.54583  -0.53770
  Beta  occ. eigenvalues --   -0.53454  -0.52435  -0.51886  -0.51407  -0.50793
  Beta  occ. eigenvalues --   -0.48430  -0.47409  -0.46795  -0.46599  -0.46100
  Beta  occ. eigenvalues --   -0.44227  -0.43790  -0.43328  -0.42922  -0.42629
  Beta  occ. eigenvalues --   -0.41438  -0.40686  -0.40291  -0.40224  -0.38648
  Beta  occ. eigenvalues --   -0.38645  -0.38166  -0.38163  -0.37926  -0.37856
  Beta  occ. eigenvalues --   -0.37618  -0.37579  -0.37076  -0.36744  -0.36001
  Beta  occ. eigenvalues --   -0.35854  -0.35783  -0.34988  -0.34571  -0.33255
  Beta  occ. eigenvalues --   -0.32754  -0.32485  -0.31484  -0.31246  -0.30831
  Beta  occ. eigenvalues --   -0.29699  -0.29676  -0.29387  -0.29154  -0.29042
  Beta  occ. eigenvalues --   -0.29004  -0.28781  -0.28770  -0.28513  -0.28247
  Beta  occ. eigenvalues --   -0.27659  -0.27358  -0.27295  -0.26980  -0.26937
  Beta  occ. eigenvalues --   -0.26716  -0.26178  -0.25941  -0.24946  -0.23995
  Beta  occ. eigenvalues --   -0.23726  -0.22544  -0.21687  -0.21024  -0.20495
  Beta  occ. eigenvalues --   -0.20121  -0.20057
  Beta virt. eigenvalues --   -0.13258  -0.13017  -0.12364  -0.11903  -0.11675
  Beta virt. eigenvalues --   -0.07049  -0.06419  -0.06071  -0.04801  -0.04490
  Beta virt. eigenvalues --   -0.04191  -0.04101  -0.03640  -0.03525  -0.03265
  Beta virt. eigenvalues --   -0.02913  -0.02790  -0.02576  -0.01996  -0.01929
  Beta virt. eigenvalues --   -0.01735  -0.01358  -0.01110  -0.00721  -0.00692
  Beta virt. eigenvalues --   -0.00490  -0.00421  -0.00180  -0.00031   0.00334
  Beta virt. eigenvalues --    0.00500   0.00639   0.01037   0.01066   0.01375
  Beta virt. eigenvalues --    0.01754   0.01840   0.02141   0.02184   0.02435
  Beta virt. eigenvalues --    0.02469   0.02633   0.03143   0.03182   0.03456
  Beta virt. eigenvalues --    0.03511   0.03598   0.03825   0.03999   0.04156
  Beta virt. eigenvalues --    0.04300   0.04414   0.04611   0.04633   0.04886
  Beta virt. eigenvalues --    0.04937   0.05133   0.05150   0.05333   0.05366
  Beta virt. eigenvalues --    0.05399   0.05619   0.05648   0.05758   0.05904
  Beta virt. eigenvalues --    0.06175   0.06203   0.06461   0.06465   0.06792
  Beta virt. eigenvalues --    0.06984   0.07147   0.07384   0.07494   0.07596
  Beta virt. eigenvalues --    0.07982   0.08197   0.08263   0.08512   0.08678
  Beta virt. eigenvalues --    0.08856   0.08900   0.09144   0.09156   0.09623
  Beta virt. eigenvalues --    0.09694   0.09913   0.09998   0.10345   0.10471
  Beta virt. eigenvalues --    0.10836   0.10960   0.11129   0.11301   0.11944
[...]
 908,0.,0.,0.,0.,0.,0.,0.,0.,0.,0.,0.,0.,0.,0.,0.,0.,0.,0.,0.,0.,0.,0.,
 0.,0.,0.,0.,0.,0.,0.,0.,0.,0.,0.,0.,0.,0.,0.,0.,0.,0.,0.,0.,0.,0.,0.,0
 .,0.,0.,0.,0.,0.,0.,0.,0.,0.,0.,0.,0.,0.,0.,0.,0.,0.,0.,0.,0.,0.,0.,0.
 ,0.,0.,0.,0.,0.,0.,0.,0.,0.,0.,0.,0.,0.,0.,0.,-0.00002543,0.00002682,0
 .00006723,-0.00003545,0.00012382,0.00014265,0.00058816,-0.00029382,-0.
 00107760,-0.00017119,0.00131718,0.00154506,-0.00069477,-0.00043509,-0.
 00119132,-0.00002039,-0.00001393,-0.00004149,-0.00005209,0.00002564,-0
 .00013954,0.00034393,-0.00015933,-0.00043606,-0.00523777,-0.00153788,-
 0.00235990,0.00617349,-0.00160053,-0.00311459,-0.00013711,0.00001253,-
 0.00079029,0.00003940,0.00001849,-0.00011560,-0.00002369,0.00002387,0.
 00001665,0.00016859,0.00004505,-0.00025818,-0.00002617,0.00007730,0.00
 018643,0.00013683,0.00034248,-0.00118184,-0.00062049,0.00058798,0.0001
 8426,-0.02614003,0.00661290,-0.03051133,-0.00183372,0.00377048,0.00147
 478,0.02486310,0.00792024,-0.02972296,0.00325398,0.00354265,0.00218517
 ,-0.00033706,0.00001890,-0.00222466,0.00024931,0.00020152,0.00054202,0
 .00012495,-0.00009719,0.00010614,-0.00004321,-0.00003370,0.00001076,0.
 00025024,0.00009496,0.00067832,-0.00002313,-0.00041188,-0.00042276,0.0
 0071165,-0.00128850,0.00332616,-0.00032249,-0.00012713,-0.00021363,0.0
 0032810,-0.00835975,0.06300139,0.,0.,0.,0.,0.,0.,0.,0.,0.,0.,0.,0.,0.,
 0.,0.,0.,0.,0.,0.,0.,0.,0.,0.,0.,0.,0.,0.,0.,0.,0.,0.,0.,0.,0.,0.,0.,0
 .,0.,0.,0.,0.,0.,0.,0.,0.,0.,0.,0.,0.,0.,0.,0.,0.,0.,0.,0.,0.,0.,0.,0.
 ,0.,0.,0.,0.,0.,0.,0.,0.,0.,0.,0.,0.,0.,0.,0.,0.,0.,0.,0.,0.,0.,0.,0.,
 0.,-0.00003813,-0.00001985,-0.00008871,0.00008112,-0.00003073,-0.00023
 406,-0.00185839,-0.00261670,-0.00064293,0.00360455,0.00017412,-0.00025
 064,-0.00184681,0.00244275,0.00078036,0.00001131,0.00000198,0.00004252
 ,0.00008278,0.00002833,0.00012400,-0.00015186,0.00006941,0.00015778,0.
 00168832,0.00673571,-0.00502002,0.00182397,-0.00684053,0.00495848,-0.0
 0013822,0.00053215,-0.00019234,-0.00004373,0.00006165,-0.00000107,-0.0
 0007085,-0.00005464,-0.00000396,-0.00004726,0.00004901,-0.00004475,-0.
 00004770,-0.00004510,0.00010746,-0.00017304,-0.00024930,-0.00001186,-0
 .00044688,0.00056529,0.00062422,0.00225437,0.00703517,0.00381856,-0.07
 068844,-0.02837781,-0.01775995,0.00259233,-0.00806853,-0.00331453,-0.0
 6863582,0.02920008,0.01678772,-0.00004226,-0.00026080,-0.00000235,-0.0
 0054792,-0.00058006,-0.00059772,-0.00005689,-0.00002796,0.00005008,0.0
 0003837,0.00003953,-0.00007376,0.00008165,0.00004690,0.00002293,0.0000
 1532,-0.00007210,-0.00025217,-0.00035298,0.00023870,0.00003852,-0.0042
 8134,-0.00043636,-0.00250091,-0.01814866,0.00101585,-0.00061116,0.1587
 3077,0.,0.,0.,0.,0.,0.,0.,0.,0.,0.,0.,0.,0.,0.,0.,0.,0.,0.,0.,0.,0.,0.
 ,0.,0.,0.,0.,0.,0.,0.,0.,0.,0.,0.,0.,0.,0.,0.,0.,0.,0.,0.,0.,0.,0.,0.,
 0.,0.,0.,0.,0.,0.,0.,0.,0.,0.,0.,0.,0.,0.,0.,0.,0.,0.,0.,0.,0.,0.,0.,0
 .,0.,0.,0.,0.,0.,0.,0.,0.,0.,0.,0.,0.,0.,0.,0.,-0.00000424,-0.00002328
 ,-0.00004237,-0.00001349,-0.00009571,-0.00009147,-0.00124167,-0.003265
 44,0.00003901,-0.00022777,-0.00129090,0.00109523,0.00135194,-0.0033607
 3,0.00007983,0.00001303,0.00000599,0.00001239,-0.00000017,0.00003056,0
 .00007226,-0.00017507,0.00011538,-0.00000144,0.00584183,0.00443832,0.0
 0229230,-0.00603722,0.00434584,0.00346801,0.00011700,-0.00002892,0.000
 05605,-0.00003545,0.00000868,0.00007569,0.00001345,-0.00002827,-0.0000
 9967,-0.00015198,-0.00007944,0.00009780,0.00006338,-0.00014933,-0.0003
 0080,0.00028157,-0.00008068,0.00066047,0.00099813,-0.00082162,-0.00096
 488,0.00572907,-0.00215245,0.00035796,-0.02055275,-0.02844678,-0.01356
 399,-0.00504664,-0.00177827,0.00089707,0.02156356,-0.02969928,-0.01228
 306,-0.00016192,0.00022519,0.00086340,-0.00119098,-0.00069227,-0.00186
 861,-0.00005663,0.00009785,-0.00010555,0.00006202,0.00002290,0.0001373
 2,-0.00013150,-0.00018155,-0.00041246,0.00007247,0.00063737,0.00068276
 ,-0.00018764,0.00027657,-0.00081843,-0.00041503,0.00181740,0.00238861,
 0.00087377,-0.06320706,-0.00738578,-0.00141621,0.12103475,0.,0.,0.,0.,
 0.,0.,0.,0.,0.,0.,0.,0.,0.,0.,0.,0.,0.,0.,0.,0.,0.,0.,0.,0.,0.,0.,0.,0
 .,0.,0.,0.,0.,0.,0.,0.,0.,0.,0.,0.,0.,0.,0.,0.,0.,0.,0.,0.,0.,0.,0.,0.
 ,0.,0.,0.,0.,0.,0.,0.,0.,0.,0.,0.,0.,0.,0.,0.,0.,0.,0.,0.,0.,0.,0.,0.,
 0.,0.,0.,0.,0.,0.,0.,0.,0.,0.,-0.00003860,-0.00000416,-0.00002162,0.00
 002479,-0.00009049,-0.00004756,0.00037929,-0.00011474,-0.00086099,0.00
 027725,0.00208150,-0.00302201,-0.00040783,0.00003136,-0.00099989,0.000
 02100,0.00001683,-0.00000990,-0.00001271,0.00002178,0.00003507,0.00013
 048,0.00020481,0.00001343,-0.00686325,0.00264913,-0.00487381,0.0066246
 6,0.00261591,-0.00586376,-0.00022502,0.00010044,0.00009208,-0.00005285
 ,0.00002014,0.00006296,-0.00000946,-0.00005439,-0.00012600,-0.00013357
 ,0.00001055,0.00004140,0.00000107,-0.00019787,-0.00043477,0.00005748,-
 0.00002324,0.00022179,0.00124864,-0.00104201,-0.00137842,0.00468750,0.
 00655466,-0.00341953,-0.01810848,-0.01729991,-0.01927065,-0.00359518,0
 .00667348,-0.00342065,0.01531004,-0.01663629,-0.01812929,0.00019588,0.
 00006136,0.00023546,-0.00103656,-0.00055687,-0.00286988,-0.00007090,0.
 00008146,-0.00006736,0.00010969,0.00006435,0.00014322,-0.00005148,-0.0
 0024181,-0.00042359,0.00025250,0.00068293,0.00098692,0.00029772,0.0003
 5185,-0.00011305,0.00223387,0.00252648,0.00318301,-0.00001489,-0.02339
 756,-0.00624566,0.00193807,0.03061064,0.06896192,0.,0.,0.,0.,0.,0.,0.,
 0.,0.,0.,0.,0.,0.,0.,0.,0.,0.,0.,0.,0.,0.,0.,0.,0.,0.,0.,0.,0.,0.,0.,0
 .,0.,0.,0.,0.,0.,0.,0.,0.,0.,0.,0.,0.,0.,0.,0.,0.,0.,0.,0.,0.,0.,0.,0.
 ,0.,0.,0.,0.,0.,0.,0.,0.,0.,0.,0.,0.,0.,0.,0.,0.,0.,0.,0.,0.,0.,0.,0.,
 0.,0.,0.,0.,0.,0.,0.,-0.00002787,-0.00000939,-0.00004413,-0.00004024,-
 0.00001145,-0.00007788,0.00006191,-0.00015748,-0.00017641,-0.00179454,
 0.00229942,-0.00072281,0.00356835,0.00025351,0.00036685,0.00000666,0.0
 0000111,0.00001824,0.00005164,0.00001248,0.00004483,0.00004455,-0.0000
 0281,0.00012718,0.00003029,0.00035668,0.00009312,0.00139228,-0.0065608
 0,-0.00461432,0.00001133,0.00726458,0.00560495,-0.00003169,0.00003191,
 0.00000870,-0.00004201,-0.00003124,-0.00002096,-0.00004578,0.00000858,
 0.00000331,-0.00002653,-0.00004514,-0.00001089,-0.00008120,0.00000823,
 0.00016110,0.00001472,-0.00008244,-0.00007604,-0.00071990,-0.00058131,
 0.00064071,0.00011224,-0.00006229,0.00004308,-0.06819952,0.02808518,-0
 .01777661,0.00288471,-0.00810881,0.00290737,-0.07047658,-0.02651468,0.
 01753046,0.00153961,0.00728595,-0.00389476,-0.00004836,-0.00000984,0.0
 0002086,0.00002579,0.00003009,-0.00000790,0.00001501,-0.00003283,-0.00
 012545,-0.00005677,0.00005686,0.00007094,0.00002751,0.00013383,-0.0004
 3998,0.00001565,0.00003269,0.00001980,-0.00497872,0.00159308,-0.000391
 04,-0.00007812,-0.00069253,-0.00060775,0.16148630,0.,0.,0.,0.,0.,0.,0.
 ,0.,0.,0.,0.,0.,0.,0.,0.,0.,0.,0.,0.,0.,0.,0.,0.,0.,0.,0.,0.,0.,0.,0.,
 0.,0.,0.,0.,0.,0.,0.,0.,0.,0.,0.,0.,0.,0.,0.,0.,0.,0.,0.,0.,0.,0.,0.,0
 .,0.,0.,0.,0.,0.,0.,0.,0.,0.,0.,0.,0.,0.,0.,0.,0.,0.,0.,0.,0.,0.,0.,0.
 ,0.,0.,0.,0.,0.,0.,0.,0.00001741,0.00000081,0.00002629,0.00000707,-0.0
 0002322,0.00005135,-0.00004190,0.00001604,0.00011314,0.00147284,-0.003
 28478,0.00014886,-0.00038080,-0.00141763,-0.00092227,-0.00000193,0.000
 00015,-0.00001162,-0.00003309,-0.00000063,-0.00001753,-0.00001673,0.00
 003350,-0.00010219,-0.00013473,0.00004474,-0.00000382,-0.00568044,0.00
 414671,-0.00327587,0.00535855,0.00502241,-0.00189184,0.00001138,-0.000
 02750,0.00002532,0.00003646,0.00001999,-0.00000769,-0.00004336,-0.0000
 4172,0.00007545,0.00002425,0.00000362,-0.00005852,-0.00002936,-0.00018
 682,0.00029069,0.00009961,-0.00007458,-0.00008674,-0.00101289,-0.00059
 878,0.00148574,-0.00006010,0.00006674,-0.00078937,0.02033447,-0.029404
 75,0.01208284,-0.00469582,-0.00230196,-0.00123660,-0.02102839,-0.02796
 511,0.01403352,0.00496935,-0.00238644,-0.00148491,0.00000989,0.0000493
 9,-0.00006483,-0.00000821,-0.00002415,0.00004142,-0.00008603,0.0000272
 1,-0.00009691,0.00002788,0.00009812,0.00008203,-0.00040157,0.00018966,
 -0.00050540,0.00001144,0.00012773,0.00031347,0.00003794,0.00036196,-0.
 00233477,-0.00060472,0.00218464,0.00174127,-0.00161240,0.12804947,0.,0
 .,0.,0.,0.,0.,0.,0.,0.,0.,0.,0.,0.,0.,0.,0.,0.,0.,0.,0.,0.,0.,0.,0.,0.
 ,0.,0.,0.,0.,0.,0.,0.,0.,0.,0.,0.,0.,0.,0.,0.,0.,0.,0.,0.,0.,0.,0.,0.,
 0.,0.,0.,0.,0.,0.,0.,0.,0.,0.,0.,0.,0.,0.,0.,0.,0.,0.,0.,0.,0.,0.,0.,0
 .,0.,0.,0.,0.,0.,0.,0.,0.,0.,0.,0.,0.,-0.00003599,0.00000182,-0.000029
 13,-0.00007170,0.00002865,-0.00002119,0.00013506,0.00000925,-0.0001098
 7,0.00019365,0.00023047,-0.00098408,-0.00032229,-0.00165625,-0.0024938
 3,0.00000303,0.00000074,0.00000740,0.00004414,-0.00000115,-0.00000499,
 0.00008110,-0.00007021,0.00007299,0.00031348,-0.00010646,0.00001472,-0
 .00640931,-0.00290640,-0.00535264,0.00829379,-0.00320032,-0.00545221,-
 0.00002365,0.00004509,-0.00004084,-0.00005803,-0.00003044,-0.00000154,
 0.00005995,0.00007031,-0.00011372,-0.00004722,-0.00001463,0.00006098,-
 0.00006968,0.00034599,-0.00042209,-0.00014038,0.00000828,0.00000505,0.
 00094412,0.00052237,-0.00238530,-0.00025139,0.00007696,0.00026440,-0.0
 1508323,0.01708958,-0.01893281,0.00355002,-0.00584653,-0.00407333,0.02
 148628,0.01850989,-0.02348750,-0.00435702,-0.00607089,-0.00384580,-0.0
 0002110,-0.00006476,0.00010470,0.00001607,0.00003753,-0.00004473,0.000
 13465,-0.00006028,0.00010505,-0.00004991,-0.00010531,-0.00006749,0.000
 64039,-0.00035815,0.00082438,0.00010481,-0.00005836,-0.00013646,0.0021
 0667,-0.00132770,0.00468485,0.00065738,-0.00196879,-0.00021752,-0.0058
 4447,-0.03270462,0.07083096,0.,0.,0.,0.,0.,0.,0.,0.,0.,0.,0.,0.,0.,0.,
 0.,0.,0.,0.,0.,0.,0.,0.,0.,0.,0.,0.,0.,0.,0.,0.,0.,0.,0.,0.,0.,0.,0.,0
 .,0.,0.,0.,0.,0.,0.,0.,0.,0.,0.,0.,0.,0.,0.,0.,0.,0.,0.,0.,0.,0.,0.,0.
 ,0.,0.,0.,0.,0.,0.,0.,0.,0.,0.,0.,0.,0.,0.,0.,0.,0.,0.,0.,0.,0.,0.,0.,
 0.00002508,0.00000444,0.00002350,0.00003946,0.00000863,0.00002447,0.00
 009821,0.00001292,-0.00004052,0.00050083,0.00053014,-0.00059526,-0.000
 23348,-0.00026354,0.00001455,-0.00000481,-0.00000009,-0.00000757,-0.00
 002813,-0.00001526,-0.00001309,-0.00002175,0.00000110,0.00000066,0.000
 11219,-0.00001147,-0.00006333,-0.00324395,0.00017705,-0.00162687,-0.00
 329306,-0.00008134,0.00181303,0.00002262,-0.00002547,-0.00000027,0.000
 03150,0.00002202,0.00002360,0.00003030,-0.00000977,0.00002481,0.000022
 38,0.00004250,0.00002888,0.00003602,-0.00002766,-0.00000023,-0.0000620
 2,0.00012311,0.00016798,-0.00016463,-0.00046471,0.00003278,-0.00033966
 ,0.00057388,0.00076198,0.00508223,0.00325096,-0.00080235,-0.04666292,-
 0.00147783,-0.03594832,0.00368986,-0.00413037,0.00125604,-0.04721152,0
 .00119404,0.03360018,0.00002580,0.00000829,-0.00001609,-0.00002306,-0.
 00002039,-0.00000993,-0.00002133,0.00004568,0.00004336,0.00003820,-0.0
 0006205,-0.00010969,-0.00002922,-0.00003090,0.00003690,-0.00001980,-0.
 00017411,-0.00035515,0.00029828,-0.00045053,0.00008135,-0.00496557,0.0
 0020600,-0.00219012,-0.01863862,0.00221939,-0.00067480,0.12040101,0.,0
 .,0.,0.,0.,0.,0.,0.,0.,0.,0.,0.,0.,0.,0.,0.,0.,0.,0.,0.,0.,0.,0.,0.,0.
 ,0.,0.,0.,0.,0.,0.,0.,0.,0.,0.,0.,0.,0.,0.,0.,0.,0.,0.,0.,0.,0.,0.,0.,
 0.,0.,0.,0.,0.,0.,0.,0.,0.,0.,0.,0.,0.,0.,0.,0.,0.,0.,0.,0.,0.,0.,0.,0
 .,0.,0.,0.,0.,0.,0.,0.,0.,0.,0.,0.,0.,-0.00002272,-0.00000542,-0.00002
 927,-0.00003758,-0.00000279,-0.00005186,0.00006854,0.00010637,-0.00014
 244,-0.00090064,0.00135165,0.00024905,0.00025478,0.00008569,-0.0007543
 6,0.00000452,0.00000057,0.00001038,0.00003750,0.00000780,0.00001960,0.
 00005798,-0.00000598,0.00008079,-0.00012047,-0.00013745,0.00024063,0.0
 0241640,-0.00193406,0.00096708,-0.00166535,-0.00248591,0.00030802,-0.0
 0002072,0.00002519,-0.00000634,-0.00003651,-0.00002667,-0.00001531,-0.
 00000695,0.00002028,-0.00003311,-0.00002142,-0.00003670,-0.00000437,-0
 .00002878,0.00010442,-0.00006669,0.00004352,-0.00009886,-0.00009734,0.
 00039331,0.00059118,-0.00047298,0.00054064,-0.00018734,-0.00075867,0.0
 0200157,0.00337783,0.00046980,-0.00162184,-0.01274090,-0.01345750,-0.0
 0154137,0.00248412,-0.00144418,0.00189914,-0.01270664,-0.01414041,-0.0
 0003010,-0.00002412,0.00003742,0.00002035,0.00002977,-0.00000899,0.000
 03839,-0.00004795,-0.00003407,-0.00003931,0.00002298,0.00006424,0.0001
 2685,-0.00005932,0.00012983,0.00013669,0.00013012,0.00015224,-0.000467
 22,-0.00042358,-0.00002643,0.00176566,0.00015198,0.00153503,0.00029547
 ,-0.07002727,0.02235560,-0.00159746,0.08950001,0.,0.,0.,0.,0.,0.,0.,0.
 ,0.,0.,0.,0.,0.,0.,0.,0.,0.,0.,0.,0.,0.,0.,0.,0.,0.,0.,0.,0.,0.,0.,0.,
 0.,0.,0.,0.,0.,0.,0.,0.,0.,0.,0.,0.,0.,0.,0.,0.,0.,0.,0.,0.,0.,0.,0.,0
 .,0.,0.,0.,0.,0.,0.,0.,0.,0.,0.,0.,0.,0.,0.,0.,0.,0.,0.,0.,0.,0.,0.,0.
 ,0.,0.,0.,0.,0.,0.,-0.00000321,0.00000318,0.00002126,-0.00000261,-0.00
 002637,0.00006512,-0.00002293,-0.00003176,0.00017500,0.00067126,0.0000
 0830,-0.00118741,0.00015766,-0.00142504,0.00154435,0.00000012,0.000000
 76,-0.00001470,-0.00002804,0.00001142,-0.00003133,-0.00007358,0.000030
 57,-0.00017298,0.00005106,-0.00001157,-0.00069728,-0.00644388,0.002065
 96,-0.00332668,0.00494760,0.00217939,-0.00190706,-0.00000101,-0.000006
 75,0.00001231,0.00001565,0.00000317,-0.00003527,-0.00004959,-0.0000265
 9,0.00001891,0.00002142,-0.00003119,-0.00010214,-0.00003654,-0.0001720
 3,0.00009244,0.00017225,-0.00012207,-0.00028902,-0.00020185,-0.0001834
 1,0.00046442,0.00055636,-0.00014957,-0.00194268,-0.00269881,-0.0041652
 2,0.00180896,-0.02447610,-0.00932203,-0.02921644,0.00137465,-0.0046627
 6,0.00180137,0.02752111,-0.00739559,-0.03086456,0.00000796,0.00004127,
 -0.00004460,0.00000995,-0.00000899,0.00006437,-0.00002994,0.00001015,0
 .00001090,0.00007371,0.00013744,0.00014367,-0.00018158,0.00008797,-0.0
 0012710,0.00016970,0.00038385,0.00065418,-0.00005249,-0.00009780,-0.00
 121649,0.00039443,0.00264688,0.00464785,0.00136453,0.00909307,-0.00382
 743,-0.00071593,0.01040271,0.06076592,0.,0.,0.,0.,0.,0.,0.,0.,0.,0.,0.
 ,0.,0.,0.,0.,0.,0.,0.,0.,0.,0.,0.,0.,0.,0.,0.,0.,0.,0.,0.,0.,0.,0.,0.,
 0.,0.,0.,0.,0.,0.,0.,0.,0.,0.,0.,0.,0.,0.,0.,0.,0.,0.,0.,0.,0.,0.,0.,0
 .,0.,0.,0.,0.,0.,0.,0.,0.,0.,0.,0.,0.,0.,0.,0.,0.,0.,0.,0.,0.,0.,0.,0.
 ,0.,0.,0.,-0.00006092,0.00000588,0.00008606,0.00043043,-0.00007725,-0.
 00012486,-0.00045112,-0.00000024,-0.00000019,0.00043068,0.00007692,0.0
 0012492,-0.00006102,-0.00000622,-0.00008597,-0.00001374,0.00001317,-0.
 00002073,0.00020175,-0.00000764,0.00002644,-0.00140400,0.00018249,-0.0
 0029434,-0.00140412,-0.00018248,0.00029428,0.00020196,0.00000797,-0.00
 002651,-0.00001370,-0.00001320,0.00002070,0.00000463,-0.00002148,-0.00
 001298,0.00000622,-0.00000492,0.00000933,-0.00009599,0.00025406,0.0000
 2983,0.00004098,-0.00007578,-0.00004313,0.00155859,0.00008848,-0.00215
 352,0.00127662,-0.00019538,-0.00178094,0.00155805,-0.00008987,0.002153
 77,0.00127617,0.00019576,0.00178037,-0.00009633,-0.00025471,-0.0000297
 0,0.00004122,0.00007520,0.00004339,0.00000463,0.00002148,0.00001306,0.
 00000616,0.00000493,-0.00000943,-0.00000037,0.00005064,0.00001417,-0.0
 0001652,0.00000774,-0.00002607,0.00035003,0.00004198,0.00018122,0.0001
 7185,-0.00041883,-0.00033327,-0.00471333,0.00000362,-0.00000108,-0.004
 16773,-0.00000167,-0.00000408,0.00035068,-0.00004153,-0.00017910,0.000
 17250,0.00041980,0.00033315,-0.00000050,-0.00005043,-0.00001439,-0.000
 01652,-0.00000788,0.00002615,0.00668836,0.,0.,0.,0.,0.,0.,0.,0.,0.,0.,
 0.,0.,0.,0.,0.,0.,0.,0.,0.,0.,0.,0.,0.,0.,0.,0.,0.,0.,0.,0.,0.,0.,0.,0
 .,0.,0.,0.,0.,0.,0.,0.,0.,0.,0.,0.,0.,0.,0.,0.,0.,0.,0.,0.,0.,0.,0.,0.
 ,0.,0.,0.,0.,0.,0.,0.,0.,0.,0.,0.,0.,0.,0.,0.,0.,0.,0.,0.,0.,0.,0.,0.,
 0.,0.,0.,0.,0.00001794,-0.00003404,-0.00003295,-0.00013566,-0.00024310
 ,0.00002178,0.00000021,0.00000342,-0.00003647,0.00013569,-0.00024310,0
 .00002210,-0.00001810,-0.00003429,-0.00003294,0.00000937,-0.00000385,0
 .00000501,-0.00006576,0.00002829,0.00000082,0.00026344,-0.00000916,0.0
 0011194,-0.00026352,-0.00000844,0.00011214,0.00006615,0.00002852,0.000
 00081,-0.00000939,-0.00000382,0.00000503,-0.00000153,0.00001028,0.0000
 1515,0.00001318,-0.00000124,-0.00001852,-0.00005753,-0.00014028,-0.000
 01285,0.00001014,-0.00002187,0.00000028,-0.00094659,-0.00137125,0.0016
 2695,0.00037762,-0.00183951,-0.00108583,0.00094453,-0.00137026,0.00162
 748,-0.00037826,-0.00184071,-0.00108452,0.00005717,-0.00014112,-0.0000
 1314,-0.00001032,-0.00002214,0.00000006,0.00000150,0.00001021,0.000015
 19,-0.00001330,-0.00000126,-0.00001855,0.00003235,0.00004591,-0.000042
 45,0.00000357,-0.00002893,0.00003932,-0.00016858,0.00003324,-0.0002433
 8,-0.00006811,0.00036733,-0.00000884,0.00000386,-0.00954201,0.02195003
 ,-0.00000089,-0.01021977,-0.02534671,0.00016872,0.00003425,-0.00024132
 ,0.00006857,0.00036780,-0.00000962,-0.00003259,0.00004615,-0.00004257,
 -0.00000357,-0.00002893,0.00003932,0.,0.02595852,0.,0.,0.,0.,0.,0.,0.,
 0.,0.,0.,0.,0.,0.,0.,0.,0.,0.,0.,0.,0.,0.,0.,0.,0.,0.,0.,0.,0.,0.,0.,0
 .,0.,0.,0.,0.,0.,0.,0.,0.,0.,0.,0.,0.,0.,0.,0.,0.,0.,0.,0.,0.,0.,0.,0.
 ,0.,0.,0.,0.,0.,0.,0.,0.,0.,0.,0.,0.,0.,0.,0.,0.,0.,0.,0.,0.,0.,0.,0.,
 0.,0.,0.,0.,0.,0.,0.,-0.00002845,0.00001187,0.00009588,0.00031281,-0.0
 0002379,-0.00045328,-0.00000039,-0.00017694,0.00028582,-0.00031289,-0.
 00002393,-0.00045351,0.00002850,0.00001223,0.00009572,-0.00000771,0.00
 000804,-0.00005553,0.00010013,-0.00001272,-0.00014295,-0.00178874,0.00
 025003,-0.00023921,0.00179001,0.00024948,-0.00023863,-0.00010037,-0.00
 001304,-0.00014311,0.00000771,0.00000799,-0.00005553,-0.00002229,-0.00
 000691,-0.00004648,-0.00001333,0.00000435,-0.00001906,0.00016075,0.000
 12248,-0.00002642,-0.00005020,0.00009010,-0.00011619,-0.00030264,-0.00
 197167,-0.00202198,-0.00001421,0.00209448,-0.00065268,0.00030189,-0.00
 197207,-0.00202193,0.00001553,0.00209188,-0.00065263,-0.00016068,0.000
 12292,-0.00002604,0.00004990,0.00009060,-0.00011632,0.00002230,-0.0000
 0677,-0.00004664,0.00001344,0.00000434,-0.00001908,0.00001038,-0.00000
 302,0.00009436,0.00000407,0.00000483,0.00003043,-0.00004841,0.00018588
 ,0.00035220,0.00012202,-0.00020971,-0.00010800,-0.00000271,0.02408608,
 -0.04571017,-0.00000127,-0.02757500,-0.04676841,0.00004802,0.00018612,
 0.00035002,-0.00012274,-0.00021170,-0.00010877,-0.00001037,-0.00000332
 ,0.00009451,-0.00000410,0.00000485,0.00003055,0.00000336,0.00264265,0.
 09862281\\0.,0.,0.,0.,0.,0.,0.,0.,0.,0.,0.,0.,0.,0.,0.,0.,0.,0.,0.,0.,
 0.,0.,0.,0.,0.,0.,0.,0.,0.,0.,0.,0.,0.,0.,0.,0.,0.,0.,0.,0.,0.,0.,0.,0
 .,0.,0.,0.,0.,0.,0.,0.,0.,0.,0.,0.,0.,0.,0.,0.,0.,0.,0.,0.,0.,0.,0.,0.
 ,0.,0.,0.,0.,0.,0.,0.,0.,0.,0.,0.,0.,0.,0.,0.,0.,0.,-0.00000484,-0.000
 00128,-0.00003885,-0.00000235,0.00000058,-0.00004169,-0.00000864,-0.00
 001352,-0.00004001,-0.00000606,0.00000146,-0.00005106,0.00000490,-0.00
 000373,-0.00003872,-0.00000093,-0.00000250,0.00005118,0.00000469,-0.00
 000143,0.00003709,-0.00000192,0.00000977,0.00004541,0.00001873,0.00001
 658,0.00005077,-0.00001788,-0.00000222,0.00004779,0.00000750,-0.000013
 38,0.00005579,-0.00001403,-0.00000009,-0.00004181,0.00000711,0.0000081
 0,-0.00004419,-0.00001524,-0.00000427,-0.00003167,0.00000888,0.0000079
 0,-0.00002785,-0.00000898,0.00000880,-0.00003601,0.00001077,-0.0000022
 3,-0.00004046,0.00000725,-0.00004469,-0.00004042,0.00000488,-0.0000115
 2,-0.00004256,-0.00000506,-0.00002419,-0.00003735,0.00001910,-0.000011
 55,-0.00006327,-0.00001202,0.00000168,-0.00005071,0.00000112,0.0000152
 7,-0.00005296,0.00001155,-0.00003028,-0.00001517,0.00000251,0.00002707
 ,-0.00002264,0.00000003,-0.00003137,-0.00002904,-0.00001090,0.00002643
 ,-0.00001692,0.00000592,-0.00005604,0.00000543,-0.00000327,0.00005318,
 0.00000792,-0.00000676,0.00006312,0.00003322,-0.00000815,0.00002607,-0
 .00006926,-0.00000277,-0.00001448,-0.00002897,0.00000085,0.00000016,0.
 00002304,0.00000340,0.00000035,-0.00006033\\\@


 WHEN HAVING A MEETING OF THE MINDS,
 MAKE SURE YOU HAVE THE EQUIPMENT FOR IT.
 Job cpu time:       1 days 20 hours  1 minutes 16.7 seconds.
 Elapsed time:       0 days  4 hours  6 minutes 37.7 seconds.
 File lengths (MBytes):  RWF=  10712 Int=      0 D2E=      0 Chk=     52 Scr=      1
 Normal termination of Gaussian 16 at Thu Feb 17 03:23:14 2022.
