 Entering Gaussian System, Link 0=g16
 Input=f7f9_TS_2_m2.gjf
 Output=f7f9_TS_2_m2.log
 Initial command:
 /shared/ucl/apps/gaussian/g16-a03/pgi-2016.5/g16/l1.exe "/tmpdir/job/263343.undefined/ucanssc/gaussian.25bcaef4/Gau-266482.inp" -scrdir="/tmpdir/job/263343.undefined/ucanssc/gaussian.25bcaef4/"
 Entering Link 1 = /shared/ucl/apps/gaussian/g16-a03/pgi-2016.5/g16/l1.exe PID=    266483.
  
 Copyright (c) 1988,1990,1992,1993,1995,1998,2003,2009,2016,
            Gaussian, Inc.  All Rights Reserved.
  
 This is part of the Gaussian(R) 16 program.  It is based on
 the Gaussian(R) 09 system (copyright 2009, Gaussian, Inc.),
 the Gaussian(R) 03 system (copyright 2003, Gaussian, Inc.),
 the Gaussian(R) 98 system (copyright 1998, Gaussian, Inc.),
 the Gaussian(R) 94 system (copyright 1995, Gaussian, Inc.),
 the Gaussian 92(TM) system (copyright 1992, Gaussian, Inc.),
 the Gaussian 90(TM) system (copyright 1990, Gaussian, Inc.),
 the Gaussian 88(TM) system (copyright 1988, Gaussian, Inc.),
 the Gaussian 86(TM) system (copyright 1986, Carnegie Mellon
 University), and the Gaussian 82(TM) system (copyright 1983,
 Carnegie Mellon University). Gaussian is a federally registered
 trademark of Gaussian, Inc.
  
 This software contains proprietary and confidential information,
 including trade secrets, belonging to Gaussian, Inc.
  
 This software is provided under written license and may be
 used, copied, transmitted, or stored only in accord with that
 written license.
  
 The following legend is applicable only to US Government
 contracts under FAR:
  
                    RESTRICTED RIGHTS LEGEND
  
 Use, reproduction and disclosure by the US Government is
 subject to restrictions as set forth in subparagraphs (a)
 and (c) of the Commercial Computer Software - Restricted
 Rights clause in FAR 52.227-19.
  
 Gaussian, Inc.
 340 Quinnipiac St., Bldg. 40, Wallingford CT 06492
  
  
 ---------------------------------------------------------------
 Warning -- This program may not be used in any manner that
 competes with the business of Gaussian, Inc. or will provide
 assistance to any competitor of Gaussian, Inc.  The licensee
 of this program is prohibited from giving any competitor of
 Gaussian, Inc. access to this program.  By using this program,
 the user acknowledges that Gaussian, Inc. is engaged in the
 business of creating and licensing software in the field of
 computational chemistry and represents and warrants to the
 licensee that it is not a competitor of Gaussian, Inc. and that
 it will not use this program in any manner prohibited above.
 ---------------------------------------------------------------
  

 Cite this work as:
 Gaussian 16, Revision A.03,
 M. J. Frisch, G. W. Trucks, H. B. Schlegel, G. E. Scuseria, 
 M. A. Robb, J. R. Cheeseman, G. Scalmani, V. Barone, 
 G. A. Petersson, H. Nakatsuji, X. Li, M. Caricato, A. V. Marenich, 
 J. Bloino, B. G. Janesko, R. Gomperts, B. Mennucci, H. P. Hratchian, 
 J. V. Ortiz, A. F. Izmaylov, J. L. Sonnenberg, D. Williams-Young, 
 F. Ding, F. Lipparini, F. Egidi, J. Goings, B. Peng, A. Petrone, 
 T. Henderson, D. Ranasinghe, V. G. Zakrzewski, J. Gao, N. Rega, 
 G. Zheng, W. Liang, M. Hada, M. Ehara, K. Toyota, R. Fukuda, 
 J. Hasegawa, M. Ishida, T. Nakajima, Y. Honda, O. Kitao, H. Nakai, 
 T. Vreven, K. Throssell, J. A. Montgomery, Jr., J. E. Peralta, 
 F. Ogliaro, M. J. Bearpark, J. J. Heyd, E. N. Brothers, K. N. Kudin, 
 V. N. Staroverov, T. A. Keith, R. Kobayashi, J. Normand, 
 K. Raghavachari, A. P. Rendell, J. C. Burant, S. S. Iyengar, 
 J. Tomasi, M. Cossi, J. M. Millam, M. Klene, C. Adamo, R. Cammi, 
 J. W. Ochterski, R. L. Martin, K. Morokuma, O. Farkas, 
 J. B. Foresman, and D. J. Fox, Gaussian, Inc., Wallingford CT, 2016.
 
 ******************************************
 Gaussian 16:  ES64L-G16RevA.03 25-Dec-2016
                20-Feb-2022 
 ******************************************
 %chk=f7f9_TS_2_m2.chk
 %NProcShared=12
 Will use up to   12 processors via shared memory.
 %mem=2GB
 ----------------------------
 # freq b3lyp/gen pseudo=read
 ----------------------------
 1/10=4,30=1,38=1/1,3;
 2/12=2,17=6,18=5,40=1/2;
 3/5=7,11=2,16=1,17=8,25=1,30=1,71=2,74=-5,140=1/1,2,3;
 4//1;
 5/5=2,38=5,98=1/2;
 8/6=4,10=90,11=11/1;
 11/6=1,8=1,9=11,15=111,16=1/1,2,10;
 10/6=1/2;
 6/7=2,8=2,9=2,10=2,28=1/1;
 7/8=1,10=1,25=1/1,2,3,16;
 1/10=4,30=1/3;
 99//99;
 ------------
 f7f9_TS_2_m2
 ------------
 Symbolic Z-matrix:
 Charge =  0 Multiplicity = 2
 H                    -1   -7.67714   1.25068  -4.89974 
 H                    -1   -7.67672  -1.24669  -4.89995 
 H                    -1   -3.83842   1.24973  -4.89973 
 H                    -1   -3.83802  -1.24764  -4.89973 
 H                    -1    0.00026   1.24911  -4.89947 
 H                    -1    0.00065  -1.24825  -4.89973 
 H                    -1    3.83895   1.24813  -4.89949 
 H                    -1    3.83935  -1.24925  -4.89948 
 H                    -1    7.67769   1.24752  -4.89925 
 H                    -1    7.67807  -1.24986  -4.89947 
 H                    -1    10.81943  -0.00208  -3.60287 
 H                    -1   -10.81855   0.00237  -3.60354 
 H                    -1   -9.59596  -3.07024  -2.01517 
 H                    -1   -5.75712  -3.07068  -2.01509 
 H                    -1   -1.91865  -3.07141  -2.01495 
 H                    -1    1.92032  -3.07226  -2.01488 
 H                    -1    5.75887  -3.07307  -2.01471 
 H                    -1    9.59773  -3.07419  -2.01458 
 H                    -1   -9.59693   3.07439  -2.01474 
 H                    -1   -5.75834   3.07337  -2.01467 
 H                    -1   -1.91935   3.07246  -2.01466 
 H                    -1    1.91912   3.07185  -2.01446 
 H                    -1    5.75815   3.07099  -2.0143 
 H                    -1    9.59674   3.07045  -2.01414 
 H                    -1   -10.80817   1.42614  -0.45869 
 H                    -1   -10.8078  -1.42136  -0.4588 
 H                    -1    10.80842   1.42168  -0.45804 
 H                    -1    10.80894  -1.4258   -0.45814 
 Si                   -7.67138  -0.00617  -4.09299 
 Si                   -3.85305   0.00271  -4.12956 
 Si                    0.00754   0.00171  -4.12114 
 Si                    3.8229    0.00417  -4.1017 
 Si                    7.69445  -0.00366  -4.11625 
 Si                   -9.59793  -0.03475  -2.81183 
 Si                   -5.72525  -0.04565  -2.76622 
 Si                   -1.9322    0.01818  -2.89341 
 Si                    1.89544   0.03374  -2.76905 
 Si                    5.76427  -0.00072  -2.8217 
 Si                    9.60044  -0.04046  -2.81029 
 Si                   -9.63363   1.74214  -1.31197 
 Si                   -9.5823   -1.75272  -1.26189 
 Si                   -5.73467   1.77983  -1.26706 
 Si                   -5.74013  -1.79042  -1.14983 
 Si                   -1.92365   1.75042  -1.34165 
 Si                   -1.91158  -1.72921  -1.39444 
 Si                    1.95083   1.77627  -1.18032 
 Si                    1.92613  -1.7854   -1.24823 
 Si                    5.65646   1.76629  -1.24705 
 Si                    5.89032  -1.76915  -1.24995 
 Si                    9.62742   1.74117  -1.30988 
 Si                    9.57951  -1.75518  -1.25764 
 Si                   -7.68214   0.90196  -0.34918 
 Si                   -7.69648  -1.34026   0.13795 
 Si                   -3.81469   1.24932  -0.08537 
 Si                   -3.67346  -1.1027    0.02618 
 Si                   -0.09135   1.13478  -0.03744 
 Si                   -0.04258  -1.21718  -0.14687 
 Si                    3.83649   1.35748   0.2422 
 Si                    3.90088  -0.89778  -0.38927 
 Si                    7.65181   0.89765  -0.38184 
 Si                    7.72858  -1.35537   0.20963 
 Bi                   -1.16929  -0.4058    2.13045 
 

 GradGradGradGradGradGradGradGradGradGradGradGradGradGradGradGradGradGrad
 Berny optimization.
 Initialization pass.
 Trust Radius=3.00D-01 FncErr=1.00D-07 GrdErr=1.00D-07 EigMax=2.50D+02 EigMin=1.00D-04
 Number of steps in this run=      2 maximum allowed number of steps=      2.
 GradGradGradGradGradGradGradGradGradGradGradGradGradGradGradGradGradGrad

 Stoichiometry    BiH28Si33(2)
 Framework group  C1[X(BiH28Si33)]
 Deg. of freedom   180
 Full point group                 C1      NOp   1
 Largest Abelian subgroup         C1      NOp   1
 Largest concise Abelian subgroup C1      NOp   1
                         Standard orientation:                         
 ---------------------------------------------------------------------
 Center     Atomic      Atomic             Coordinates (Angstroms)
 Number     Number       Type             X           Y           Z
 ---------------------------------------------------------------------
      1          1           0        7.437158   -4.015779    0.943747
      2          1           0        7.442689   -3.767497   -1.541252
      3          1           0        3.599150   -3.941981    0.940975
      4          1           0        3.604700   -3.693485   -1.543989
      5          1           0       -0.238810   -3.867965    0.938568
      6          1           0       -0.233256   -3.619730   -1.546422
      7          1           0       -4.076794   -3.794193    0.935774
      8          1           0       -4.071243   -3.545693   -1.549214
      9          1           0       -7.914821   -3.720203    0.933364
     10          1           0       -7.909258   -3.471919   -1.551636
     11          1           0      -11.028296   -2.245847   -0.182496
     12          1           0       10.605664   -2.662351   -0.167875
     13          1           0        9.420892   -0.752968   -3.067719
     14          1           0        5.582755   -0.679150   -3.069967
     15          1           0        1.744998   -0.605244   -3.072501
     16          1           0       -2.093257   -0.531394   -3.075161
     17          1           0       -5.931093   -0.457447   -3.077771
     18          1           0       -9.769236   -0.383510   -3.080688
     19          1           0        9.407223   -1.363951    3.046441
     20          1           0        5.569350   -1.290082    3.043615
     21          1           0        1.731066   -1.216282    3.040895
     22          1           0       -2.106683   -1.142331    3.038487
     23          1           0       -5.945002   -1.068384    3.035827
     24          1           0       -9.782883   -0.994486    3.033481
     25          1           0       10.651824    0.324835    1.561825
     26          1           0       10.658229    0.608066   -1.271550
     27          1           0      -10.960761    0.740919    1.547202
     28          1           0      -10.954501    1.024154   -1.286154
     29         14           0        7.449774   -3.088018   -0.226578
     30         14           0        3.631426   -3.051977   -0.223186
     31         14           0       -0.228286   -2.969385   -0.225182
     32         14           0       -4.042584   -2.877048   -0.222609
     33         14           0       -7.913676   -2.816422   -0.233682
     34         14           0        9.400442   -1.847596   -0.126593
     35         14           0        5.529375   -1.726792   -0.134732
     36         14           0        1.734447   -1.786851   -0.085681
     37         14           0       -2.090149   -1.591204   -0.059632
     38         14           0       -5.959194   -1.565884   -0.100994
     39         14           0       -9.794344   -1.476923   -0.141223
     40         14           0        9.460490   -0.532944    1.790774
     41         14           0        9.418442   -0.134400   -1.681771
     42         14           0        5.563014   -0.417158    1.830895
     43         14           0        5.579208    0.054604   -1.709952
     44         14           0        1.751343   -0.415282    1.792396
     45         14           0        1.746563   -0.121342   -1.675213
     46         14           0       -2.119406   -0.182970    1.832342
     47         14           0       -2.087527    0.103381   -1.718394
     48         14           0       -5.825601   -0.177224    1.814013
     49         14           0       -6.051055    0.176162   -1.704271
     50         14           0       -9.796971   -0.160991    1.780882
     51         14           0       -9.739740    0.237947   -1.692881
     52         14           0        7.529701    0.545957    1.049658
     53         14           0        7.558669    1.253400   -1.132932
     54         14           0        3.667169    0.848092    1.419718
     55         14           0        3.533693    1.195807   -0.909588
     56         14           0       -0.054302    0.978650    1.308748
     57         14           0       -0.099543    1.104738   -1.042444
     58         14           0       -3.976613    1.310095    1.556317
     59         14           0       -4.047651    0.907515   -0.750623
     60         14           0       -7.802032    0.808268    1.034854
     61         14           0       -7.862146    1.622348   -1.148153
     62         83           0        1.068423    3.267977   -0.007900
 ---------------------------------------------------------------------
 Rotational constants (GHZ):           0.0845648           0.0135285           0.0125636
 General basis read from cards:  (5D, 7F)
 ======================================================================================================
                                       Pseudopotential Parameters
 ======================================================================================================
  Center     Atomic      Valence      Angular      Power
  Number     Number     Electrons     Momentum     of R      Exponent        Coefficient   SO-Coeffient
 ======================================================================================================
    1          1
                                   No pseudopotential on this center.
    2          1
                                   No pseudopotential on this center.
    3          1
                                   No pseudopotential on this center.
    4          1
                                   No pseudopotential on this center.
    5          1
                                   No pseudopotential on this center.
    6          1
                                   No pseudopotential on this center.
    7          1
                                   No pseudopotential on this center.
    8          1
                                   No pseudopotential on this center.
    9          1
                                   No pseudopotential on this center.
   10          1
                                   No pseudopotential on this center.
   11          1
                                   No pseudopotential on this center.
   12          1
                                   No pseudopotential on this center.
   13          1
                                   No pseudopotential on this center.
   14          1
                                   No pseudopotential on this center.
   15          1
                                   No pseudopotential on this center.
   16          1
                                   No pseudopotential on this center.
   17          1
                                   No pseudopotential on this center.
   18          1
                                   No pseudopotential on this center.
   19          1
                                   No pseudopotential on this center.
   20          1
                                   No pseudopotential on this center.
   21          1
                                   No pseudopotential on this center.
   22          1
                                   No pseudopotential on this center.
   23          1
                                   No pseudopotential on this center.
   24          1
                                   No pseudopotential on this center.
   25          1
                                   No pseudopotential on this center.
   26          1
                                   No pseudopotential on this center.
   27          1
                                   No pseudopotential on this center.
   28          1
                                   No pseudopotential on this center.
   29         14            4
                                      D and up 
                                                     1      505.3137693      -10.00000000    0.00000000
                                                     2      103.2221026      -84.92360870    0.00000000
                                                     2       23.4569248      -30.32994100    0.00000000
                                                     2        6.7505693      -12.10490460    0.00000000
                                                     2        2.1603140       -1.89454080    0.00000000
                                      S - D
                                                     0      689.4910719        3.00000000    0.00000000
                                                     1      114.1728510       60.52068330    0.00000000
                                                     2       35.7424336      201.30861370    0.00000000
                                                     2        9.4529586       65.93997450    0.00000000
                                                     2        2.2543590       19.03007890    0.00000000
                                      P - D
                                                     0       88.9379355        5.00000000    0.00000000
                                                     1       76.7773538        6.64138170    0.00000000
                                                     2       56.1480987      247.59724160    0.00000000
                                                     2       21.1874014      129.37153800    0.00000000
                                                     2        6.8277276       47.46171070    0.00000000
                                                     2        2.1001192       11.73765740    0.00000000
   30         14            4
                                      D and up 
                                                     1      505.3137693      -10.00000000    0.00000000
                                                     2      103.2221026      -84.92360870    0.00000000
                                                     2       23.4569248      -30.32994100    0.00000000
                                                     2        6.7505693      -12.10490460    0.00000000
                                                     2        2.1603140       -1.89454080    0.00000000
                                      S - D
                                                     0      689.4910719        3.00000000    0.00000000
                                                     1      114.1728510       60.52068330    0.00000000
                                                     2       35.7424336      201.30861370    0.00000000
                                                     2        9.4529586       65.93997450    0.00000000
                                                     2        2.2543590       19.03007890    0.00000000
                                      P - D
                                                     0       88.9379355        5.00000000    0.00000000
                                                     1       76.7773538        6.64138170    0.00000000
                                                     2       56.1480987      247.59724160    0.00000000
                                                     2       21.1874014      129.37153800    0.00000000
                                                     2        6.8277276       47.46171070    0.00000000
                                                     2        2.1001192       11.73765740    0.00000000
   31         14            4
                                      D and up 
                                                     1      505.3137693      -10.00000000    0.00000000
                                                     2      103.2221026      -84.92360870    0.00000000
                                                     2       23.4569248      -30.32994100    0.00000000
                                                     2        6.7505693      -12.10490460    0.00000000
                                                     2        2.1603140       -1.89454080    0.00000000
                                      S - D
                                                     0      689.4910719        3.00000000    0.00000000
                                                     1      114.1728510       60.52068330    0.00000000
                                                     2       35.7424336      201.30861370    0.00000000
                                                     2        9.4529586       65.93997450    0.00000000
                                                     2        2.2543590       19.03007890    0.00000000
                                      P - D
                                                     0       88.9379355        5.00000000    0.00000000
                                                     1       76.7773538        6.64138170    0.00000000
                                                     2       56.1480987      247.59724160    0.00000000
                                                     2       21.1874014      129.37153800    0.00000000
                                                     2        6.8277276       47.46171070    0.00000000
                                                     2        2.1001192       11.73765740    0.00000000
   32         14            4
                                      D and up 
                                                     1      505.3137693      -10.00000000    0.00000000
                                                     2      103.2221026      -84.92360870    0.00000000
                                                     2       23.4569248      -30.32994100    0.00000000
                                                     2        6.7505693      -12.10490460    0.00000000
                                                     2        2.1603140       -1.89454080    0.00000000
                                      S - D
                                                     0      689.4910719        3.00000000    0.00000000
                                                     1      114.1728510       60.52068330    0.00000000
                                                     2       35.7424336      201.30861370    0.00000000
                                                     2        9.4529586       65.93997450    0.00000000
                                                     2        2.2543590       19.03007890    0.00000000
                                      P - D
                                                     0       88.9379355        5.00000000    0.00000000
                                                     1       76.7773538        6.64138170    0.00000000
                                                     2       56.1480987      247.59724160    0.00000000
                                                     2       21.1874014      129.37153800    0.00000000
                                                     2        6.8277276       47.46171070    0.00000000
                                                     2        2.1001192       11.73765740    0.00000000
   33         14            4
                                      D and up 
                                                     1      505.3137693      -10.00000000    0.00000000
                                                     2      103.2221026      -84.92360870    0.00000000
                                                     2       23.4569248      -30.32994100    0.00000000
                                                     2        6.7505693      -12.10490460    0.00000000
                                                     2        2.1603140       -1.89454080    0.00000000
                                      S - D
                                                     0      689.4910719        3.00000000    0.00000000
                                                     1      114.1728510       60.52068330    0.00000000
                                                     2       35.7424336      201.30861370    0.00000000
                                                     2        9.4529586       65.93997450    0.00000000
                                                     2        2.2543590       19.03007890    0.00000000
                                      P - D
                                                     0       88.9379355        5.00000000    0.00000000
                                                     1       76.7773538        6.64138170    0.00000000
                                                     2       56.1480987      247.59724160    0.00000000
                                                     2       21.1874014      129.37153800    0.00000000
                                                     2        6.8277276       47.46171070    0.00000000
                                                     2        2.1001192       11.73765740    0.00000000
   34         14            4
                                      D and up 
                                                     1      505.3137693      -10.00000000    0.00000000
                                                     2      103.2221026      -84.92360870    0.00000000
                                                     2       23.4569248      -30.32994100    0.00000000
                                                     2        6.7505693      -12.10490460    0.00000000
                                                     2        2.1603140       -1.89454080    0.00000000
                                      S - D
                                                     0      689.4910719        3.00000000    0.00000000
                                                     1      114.1728510       60.52068330    0.00000000
                                                     2       35.7424336      201.30861370    0.00000000
                                                     2        9.4529586       65.93997450    0.00000000
                                                     2        2.2543590       19.03007890    0.00000000
                                      P - D
                                                     0       88.9379355        5.00000000    0.00000000
                                                     1       76.7773538        6.64138170    0.00000000
                                                     2       56.1480987      247.59724160    0.00000000
                                                     2       21.1874014      129.37153800    0.00000000
                                                     2        6.8277276       47.46171070    0.00000000
                                                     2        2.1001192       11.73765740    0.00000000
   35         14            4
                                      D and up 
                                                     1      505.3137693      -10.00000000    0.00000000
                                                     2      103.2221026      -84.92360870    0.00000000
                                                     2       23.4569248      -30.32994100    0.00000000
                                                     2        6.7505693      -12.10490460    0.00000000
                                                     2        2.1603140       -1.89454080    0.00000000
                                      S - D
                                                     0      689.4910719        3.00000000    0.00000000
                                                     1      114.1728510       60.52068330    0.00000000
                                                     2       35.7424336      201.30861370    0.00000000
                                                     2        9.4529586       65.93997450    0.00000000
                                                     2        2.2543590       19.03007890    0.00000000
                                      P - D
                                                     0       88.9379355        5.00000000    0.00000000
                                                     1       76.7773538        6.64138170    0.00000000
                                                     2       56.1480987      247.59724160    0.00000000
                                                     2       21.1874014      129.37153800    0.00000000
                                                     2        6.8277276       47.46171070    0.00000000
                                                     2        2.1001192       11.73765740    0.00000000
   36         14            4
                                      D and up 
                                                     1      505.3137693      -10.00000000    0.00000000
                                                     2      103.2221026      -84.92360870    0.00000000
                                                     2       23.4569248      -30.32994100    0.00000000
                                                     2        6.7505693      -12.10490460    0.00000000
                                                     2        2.1603140       -1.89454080    0.00000000
                                      S - D
                                                     0      689.4910719        3.00000000    0.00000000
                                                     1      114.1728510       60.52068330    0.00000000
                                                     2       35.7424336      201.30861370    0.00000000
                                                     2        9.4529586       65.93997450    0.00000000
                                                     2        2.2543590       19.03007890    0.00000000
                                      P - D
                                                     0       88.9379355        5.00000000    0.00000000
                                                     1       76.7773538        6.64138170    0.00000000
                                                     2       56.1480987      247.59724160    0.00000000
                                                     2       21.1874014      129.37153800    0.00000000
                                                     2        6.8277276       47.46171070    0.00000000
                                                     2        2.1001192       11.73765740    0.00000000
   37         14            4
                                      D and up 
                                                     1      505.3137693      -10.00000000    0.00000000
                                                     2      103.2221026      -84.92360870    0.00000000
                                                     2       23.4569248      -30.32994100    0.00000000
                                                     2        6.7505693      -12.10490460    0.00000000
                                                     2        2.1603140       -1.89454080    0.00000000
                                      S - D
                                                     0      689.4910719        3.00000000    0.00000000
                                                     1      114.1728510       60.52068330    0.00000000
                                                     2       35.7424336      201.30861370    0.00000000
                                                     2        9.4529586       65.93997450    0.00000000
                                                     2        2.2543590       19.03007890    0.00000000
                                      P - D
                                                     0       88.9379355        5.00000000    0.00000000
                                                     1       76.7773538        6.64138170    0.00000000
                                                     2       56.1480987      247.59724160    0.00000000
                                                     2       21.1874014      129.37153800    0.00000000
                                                     2        6.8277276       47.46171070    0.00000000
                                                     2        2.1001192       11.73765740    0.00000000
   38         14            4
                                      D and up 
                                                     1      505.3137693      -10.00000000    0.00000000
                                                     2      103.2221026      -84.92360870    0.00000000
                                                     2       23.4569248      -30.32994100    0.00000000
                                                     2        6.7505693      -12.10490460    0.00000000
                                                     2        2.1603140       -1.89454080    0.00000000
                                      S - D
                                                     0      689.4910719        3.00000000    0.00000000
                                                     1      114.1728510       60.52068330    0.00000000
                                                     2       35.7424336      201.30861370    0.00000000
                                                     2        9.4529586       65.93997450    0.00000000
                                                     2        2.2543590       19.03007890    0.00000000
                                      P - D
                                                     0       88.9379355        5.00000000    0.00000000
                                                     1       76.7773538        6.64138170    0.00000000
                                                     2       56.1480987      247.59724160    0.00000000
                                                     2       21.1874014      129.37153800    0.00000000
                                                     2        6.8277276       47.46171070    0.00000000
                                                     2        2.1001192       11.73765740    0.00000000
   39         14            4
                                      D and up 
                                                     1      505.3137693      -10.00000000    0.00000000
                                                     2      103.2221026      -84.92360870    0.00000000
                                                     2       23.4569248      -30.32994100    0.00000000
                                                     2        6.7505693      -12.10490460    0.00000000
                                                     2        2.1603140       -1.89454080    0.00000000
                                      S - D
                                                     0      689.4910719        3.00000000    0.00000000
                                                     1      114.1728510       60.52068330    0.00000000
                                                     2       35.7424336      201.30861370    0.00000000
                                                     2        9.4529586       65.93997450    0.00000000
                                                     2        2.2543590       19.03007890    0.00000000
                                      P - D
                                                     0       88.9379355        5.00000000    0.00000000
                                                     1       76.7773538        6.64138170    0.00000000
                                                     2       56.1480987      247.59724160    0.00000000
                                                     2       21.1874014      129.37153800    0.00000000
                                                     2        6.8277276       47.46171070    0.00000000
                                                     2        2.1001192       11.73765740    0.00000000
   40         14
                                   No pseudopotential on this center.
   41         14
                                   No pseudopotential on this center.
   42         14
                                   No pseudopotential on this center.
   43         14
                                   No pseudopotential on this center.
   44         14
                                   No pseudopotential on this center.
   45         14
                                   No pseudopotential on this center.
   46         14
                                   No pseudopotential on this center.
   47         14
                                   No pseudopotential on this center.
   48         14
                                   No pseudopotential on this center.
   49         14
                                   No pseudopotential on this center.
   50         14
                                   No pseudopotential on this center.
   51         14
                                   No pseudopotential on this center.
   52         14
                                   No pseudopotential on this center.
   53         14
                                   No pseudopotential on this center.
   54         14
                                   No pseudopotential on this center.
   55         14
                                   No pseudopotential on this center.
   56         14
                                   No pseudopotential on this center.
   57         14
                                   No pseudopotential on this center.
   58         14
                                   No pseudopotential on this center.
   59         14
                                   No pseudopotential on this center.
   60         14
                                   No pseudopotential on this center.
   61         14
                                   No pseudopotential on this center.
   62         83            5
                                      G and up 
                                                     0      223.3091971       -0.18335200    0.00000000
                                                     1       86.4699216      -53.33894920    0.00000000
                                                     2       26.8492203     -201.91178410    0.00000000
                                                     2        9.3823622      -76.31152950    0.00000000
                                                     2        2.7614708      -24.25784680    0.00000000
                                                     2        0.9423923       -4.03197000    0.00000000
                                      S - G
                                                     0      155.9783914        2.79165100    0.00000000
                                                     1       54.4591139       71.85538170    0.00000000
                                                     2       20.1794558      252.43274440    0.00000000
                                                     2        6.1273104       89.60451090    0.00000000
                                                     2        1.1805983       61.17441360    0.00000000
                                                     2        0.9932464      -33.04719060    0.00000000
                                      P - G
                                                     0       74.5091386        4.84629140    0.00000000
                                                     1       28.0487647       65.68833960    0.00000000
                                                     2       12.0168508      166.26196730    0.00000000
                                                     2        3.6914327       54.13933290    0.00000000
                                                     2        0.9080824       28.62048800    0.00000000
                                                     2        0.7394617      -12.34522040    0.00000000
                                      D - G
                                                     0       68.0856679        3.21838320    0.00000000
                                                     1       23.7250355       54.89526810    0.00000000
                                                     2        9.2437053      116.55407080    0.00000000
                                                     2        1.8452292       69.07606620    0.00000000
                                                     2        1.2209859      -72.64108700    0.00000000
                                                     2        0.8740861       38.94000550    0.00000000
                                      F - G
                                                     0      134.3538983        3.98640750    0.00000000
                                                     1       51.5812797       63.02620780    0.00000000
                                                     2       54.9307284       92.52599590    0.00000000
                                                     2       17.0475346      240.99736720    0.00000000
                                                     2        3.7702824       62.18445770    0.00000000
                                                     2        0.7670500       -1.72511340    0.00000000
 ======================================================================================================
 There are   795 symmetry adapted cartesian basis functions of A   symmetry.
 There are   772 symmetry adapted basis functions of A   symmetry.
   772 basis functions,  1317 primitive gaussians,   795 cartesian basis functions
   193 alpha electrons      192 beta electrons
       nuclear repulsion energy      6598.4561872353 Hartrees.
 NAtoms=   62 NActive=   62 NUniq=   62 SFac= 1.00D+00 NAtFMM=   60 NAOKFM=T Big=T
 Integral buffers will be    131072 words long.
 Raffenetti 2 integral format.
 Two-electron integral symmetry is turned on.
 One-electron integrals computed using PRISM.
   1 Symmetry operations used in ECPInt.
 ECPInt:  NShTT=   72390 NPrTT=  247411 LenC2=   47989 LenP2D=  103567.
 LDataN:  DoStor=T MaxTD1= 6 Len=  172
 NBasis=   772 RedAO= T EigKep=  2.82D-05  NBF=   772
 NBsUse=   772 1.00D-06 EigRej= -1.00D+00 NBFU=   772
 Defaulting to unpruned grid for atomic number  83.
 ExpMin= 2.04D-02 ExpMax= 6.94D+04 ExpMxC= 2.33D+03 IAcc=3 IRadAn=         5 AccDes= 0.00D+00
 Harris functional with IExCor=  402 and IRadAn=       5 diagonalized for initial guess.
 HarFok:  IExCor=  402 AccDes= 0.00D+00 IRadAn=         5 IDoV= 1 UseB2=F ITyADJ=14
 ICtDFT=  3500011 ScaDFX=  1.000000  1.000000  1.000000  1.000000
 Defaulting to unpruned grid for atomic number  83.
 FoFCou: FMM=F IPFlag=           0 FMFlag=      100000 FMFlg1=        2001
         NFxFlg=           0 DoJE=T BraDBF=F KetDBF=T FulRan=T
         wScrn=  0.000000 ICntrl=       500 IOpCl=  0 I1Cent=   200000004 NGrid=           0
         NMat0=    1 NMatS0=      1 NMatT0=    0 NMatD0=    1 NMtDS0=    0 NMtDT0=    0
 Petite list used in FoFCou.
 Initial guess <Sx>= 0.0000 <Sy>= 0.0000 <Sz>= 0.5000 <S**2>= 0.7500 S= 0.5000
 Requested convergence on RMS density matrix=1.00D-08 within 128 cycles.
 Requested convergence on MAX density matrix=1.00D-06.
 Requested convergence on             energy=1.00D-06.
 No special actions if energy rises.
 Defaulting to unpruned grid for atomic number  83.
 Defaulting to unpruned grid for atomic number  83.
 Defaulting to unpruned grid for atomic number  83.
 Defaulting to unpruned grid for atomic number  83.
 Defaulting to unpruned grid for atomic number  83.
 Defaulting to unpruned grid for atomic number  83.
 Defaulting to unpruned grid for atomic number  83.
 Defaulting to unpruned grid for atomic number  83.
 Defaulting to unpruned grid for atomic number  83.
 Defaulting to unpruned grid for atomic number  83.
 Defaulting to unpruned grid for atomic number  83.
 Defaulting to unpruned grid for atomic number  83.
 Restarting incremental Fock formation.
 SCF Done:  E(UB3LYP) =  -6434.35994656     A.U. after   32 cycles
            NFock= 32  Conv=0.47D-08     -V/T= 2.0064
 <Sx>= 0.0000 <Sy>= 0.0000 <Sz>= 0.5000 <S**2>= 0.7555 S= 0.5028
 <L.S>= 0.000000000000E+00
 Annihilation of the first spin contaminant:
 S**2 before annihilation     0.7555,   after     0.7500
 DoSCS=F DFT=T ScalE2(SS,OS)=  1.000000  1.000000
 Range of M.O.s used for correlation:     1   772
 NBasis=   772 NAE=   193 NBE=   192 NFC=     0 NFV=     0
 NROrb=    772 NOA=   193 NOB=   192 NVA=   579 NVB=   580

 **** Warning!!: The largest alpha MO coefficient is  0.31440045D+02


 **** Warning!!: The smallest alpha delta epsilon is  0.61431605D-01


 **** Warning!!: The largest beta MO coefficient is  0.30771149D+02


 **** Warning!!: The smallest beta delta epsilon is  0.62674533D-01

 PrsmSu:  requested number of processors reduced to:   4 ShMem   1 Linda.
   1 Symmetry operations used in ECPInt.
 ECPInt:  NShTT=   72390 NPrTT=  247411 LenC2=   47989 LenP2D=  103567.
 LDataN:  DoStor=T MaxTD1= 7 Len=  274
 Number of processors reduced to   2 by ecpmxn.
 Symmetrizing basis deriv contribution to polar:
 IMax=3 JMax=2 DiffMx= 0.00D+00
 G2DrvN: will do     8 centers at a time, making    8 passes.
 Calling FoFCou, ICntrl=  3107 FMM=T I1Cent=   0 AccDes= 0.00D+00.
 Defaulting to unpruned grid for atomic number  83.
 Defaulting to unpruned grid for atomic number  83.
 Defaulting to unpruned grid for atomic number  83.
 Defaulting to unpruned grid for atomic number  83.
 Defaulting to unpruned grid for atomic number  83.
 Defaulting to unpruned grid for atomic number  83.
 Defaulting to unpruned grid for atomic number  83.
 Defaulting to unpruned grid for atomic number  83.
 Defaulting to unpruned grid for atomic number  83.
 Defaulting to unpruned grid for atomic number  83.
 Defaulting to unpruned grid for atomic number  83.
 Defaulting to unpruned grid for atomic number  83.
 Calling FoFCou, ICntrl=  3107 FMM=T I1Cent=   0 AccDes= 0.00D+00.
 Calling FoFCou, ICntrl=  3107 FMM=T I1Cent=   0 AccDes= 0.00D+00.
 Calling FoFCou, ICntrl=  3107 FMM=T I1Cent=   0 AccDes= 0.00D+00.
 Calling FoFCou, ICntrl=  3107 FMM=T I1Cent=   0 AccDes= 0.00D+00.
 Calling FoFCou, ICntrl=  3107 FMM=T I1Cent=   0 AccDes= 0.00D+00.
 Calling FoFCou, ICntrl=  3107 FMM=T I1Cent=   0 AccDes= 0.00D+00.
 Calling FoFCou, ICntrl=  3107 FMM=T I1Cent=   0 AccDes= 0.00D+00.
 End of G2Drv F.D. properties file   721 does not exist.
 End of G2Drv F.D. properties file   722 does not exist.
 End of G2Drv F.D. properties file   788 does not exist.
          IDoAtm=00000000000000000000000000001111111111111111111111
          IDoAtm=111111111111
          Differentiating once with respect to electric field.
                with respect to dipole field.
          Differentiating once with respect to nuclear coordinates.
 Defaulting to unpruned grid for atomic number  83.
 CalDSu exits because no D1Ps are significant.
 Defaulting to unpruned grid for atomic number  83.
 Defaulting to unpruned grid for atomic number  83.
 Defaulting to unpruned grid for atomic number  83.
 Defaulting to unpruned grid for atomic number  83.
 Defaulting to unpruned grid for atomic number  83.
 Defaulting to unpruned grid for atomic number  83.
 Defaulting to unpruned grid for atomic number  83.
 Defaulting to unpruned grid for atomic number  83.
 Defaulting to unpruned grid for atomic number  83.
 Defaulting to unpruned grid for atomic number  83.
 Defaulting to unpruned grid for atomic number  83.
 Defaulting to unpruned grid for atomic number  83.
          There are   105 degrees of freedom in the 1st order CPHF.  IDoFFX=6 NUNeed=     3.
    105 vectors produced by pass  0 Test12= 2.23D-13 1.00D-09 XBig12= 9.48D+03 2.39D+01.
 AX will form    12 AO Fock derivatives at one time.
    105 vectors produced by pass  1 Test12= 2.23D-13 1.00D-09 XBig12= 2.30D+03 5.17D+00.
    105 vectors produced by pass  2 Test12= 2.23D-13 1.00D-09 XBig12= 7.94D+01 1.67D+00.
    105 vectors produced by pass  3 Test12= 2.23D-13 1.00D-09 XBig12= 2.01D+00 1.67D-01.
    105 vectors produced by pass  4 Test12= 2.23D-13 1.00D-09 XBig12= 3.45D-02 2.45D-02.
    105 vectors produced by pass  5 Test12= 2.23D-13 1.00D-09 XBig12= 6.11D-04 2.28D-03.
    105 vectors produced by pass  6 Test12= 2.23D-13 1.00D-09 XBig12= 6.42D-06 1.85D-04.
    105 vectors produced by pass  7 Test12= 2.23D-13 1.00D-09 XBig12= 5.03D-08 1.46D-05.
     65 vectors produced by pass  8 Test12= 2.23D-13 1.00D-09 XBig12= 3.30D-10 9.10D-07.
     36 vectors produced by pass  9 Test12= 2.23D-13 1.00D-09 XBig12= 2.93D-12 8.84D-08.
     29 vectors produced by pass 10 Test12= 2.23D-13 1.00D-09 XBig12= 3.19D-14 8.30D-09.
     20 vectors produced by pass 11 Test12= 2.23D-13 1.00D-09 XBig12= 4.95D-15 2.40D-09.
     19 vectors produced by pass 12 Test12= 2.23D-13 1.00D-09 XBig12= 7.14D-15 3.43D-09.
     19 vectors produced by pass 13 Test12= 2.23D-13 1.00D-09 XBig12= 8.99D-15 3.41D-09.
     18 vectors produced by pass 14 Test12= 2.23D-13 1.00D-09 XBig12= 8.36D-15 3.41D-09.
     10 vectors produced by pass 15 Test12= 2.23D-13 1.00D-09 XBig12= 9.00D-15 3.62D-09.
      9 vectors produced by pass 16 Test12= 2.23D-13 1.00D-09 XBig12= 1.29D-14 3.76D-09.
      9 vectors produced by pass 17 Test12= 2.23D-13 1.00D-09 XBig12= 8.64D-15 2.88D-09.
      8 vectors produced by pass 18 Test12= 2.23D-13 1.00D-09 XBig12= 8.58D-15 2.98D-09.
      6 vectors produced by pass 19 Test12= 2.23D-13 1.00D-09 XBig12= 7.95D-15 3.30D-09.
      6 vectors produced by pass 20 Test12= 2.23D-13 1.00D-09 XBig12= 8.76D-15 3.04D-09.
      6 vectors produced by pass 21 Test12= 2.23D-13 1.00D-09 XBig12= 9.30D-15 3.16D-09.
      5 vectors produced by pass 22 Test12= 2.23D-13 1.00D-09 XBig12= 6.01D-15 2.16D-09.
      5 vectors produced by pass 23 Test12= 2.23D-13 1.00D-09 XBig12= 7.72D-15 2.85D-09.
      5 vectors produced by pass 24 Test12= 2.23D-13 1.00D-09 XBig12= 1.48D-14 3.68D-09.
      5 vectors produced by pass 25 Test12= 2.23D-13 1.00D-09 XBig12= 6.77D-15 2.68D-09.
      5 vectors produced by pass 26 Test12= 2.23D-13 1.00D-09 XBig12= 1.11D-14 3.75D-09.
      5 vectors produced by pass 27 Test12= 2.23D-13 1.00D-09 XBig12= 5.88D-15 2.75D-09.
      5 vectors produced by pass 28 Test12= 2.23D-13 1.00D-09 XBig12= 7.92D-15 3.10D-09.
      5 vectors produced by pass 29 Test12= 2.23D-13 1.00D-09 XBig12= 9.92D-15 2.88D-09.
      4 vectors produced by pass 30 Test12= 2.23D-13 1.00D-09 XBig12= 4.22D-15 1.82D-09.
      4 vectors produced by pass 31 Test12= 2.23D-13 1.00D-09 XBig12= 1.47D-14 3.86D-09.
      3 vectors produced by pass 32 Test12= 2.23D-13 1.00D-09 XBig12= 4.58D-15 1.82D-09.
      3 vectors produced by pass 33 Test12= 2.23D-13 1.00D-09 XBig12= 9.84D-15 3.65D-09.
      3 vectors produced by pass 34 Test12= 2.23D-13 1.00D-09 XBig12= 1.17D-14 3.54D-09.
      3 vectors produced by pass 35 Test12= 2.23D-13 1.00D-09 XBig12= 5.55D-15 2.41D-09.
      3 vectors produced by pass 36 Test12= 2.23D-13 1.00D-09 XBig12= 8.09D-15 2.62D-09.
      3 vectors produced by pass 37 Test12= 2.23D-13 1.00D-09 XBig12= 7.26D-15 2.72D-09.
      3 vectors produced by pass 38 Test12= 2.23D-13 1.00D-09 XBig12= 6.98D-15 2.48D-09.
      3 vectors produced by pass 39 Test12= 2.23D-13 1.00D-09 XBig12= 6.92D-15 2.92D-09.
      3 vectors produced by pass 40 Test12= 2.23D-13 1.00D-09 XBig12= 9.60D-15 2.89D-09.
      3 vectors produced by pass 41 Test12= 2.23D-13 1.00D-09 XBig12= 8.90D-15 3.25D-09.
      3 vectors produced by pass 42 Test12= 2.23D-13 1.00D-09 XBig12= 9.21D-15 3.03D-09.
      3 vectors produced by pass 43 Test12= 2.23D-13 1.00D-09 XBig12= 6.43D-15 2.17D-09.
      3 vectors produced by pass 44 Test12= 2.23D-13 1.00D-09 XBig12= 7.61D-15 2.81D-09.
      3 vectors produced by pass 45 Test12= 2.23D-13 1.00D-09 XBig12= 9.13D-15 3.13D-09.
      3 vectors produced by pass 46 Test12= 2.23D-13 1.00D-09 XBig12= 5.63D-15 2.22D-09.
      3 vectors produced by pass 47 Test12= 2.23D-13 1.00D-09 XBig12= 7.23D-15 2.68D-09.
      3 vectors produced by pass 48 Test12= 2.23D-13 1.00D-09 XBig12= 6.91D-15 2.71D-09.
      3 vectors produced by pass 49 Test12= 2.23D-13 1.00D-09 XBig12= 6.15D-15 3.04D-09.
      3 vectors produced by pass 50 Test12= 2.23D-13 1.00D-09 XBig12= 8.43D-15 2.94D-09.
      3 vectors produced by pass 51 Test12= 2.23D-13 1.00D-09 XBig12= 6.15D-15 2.66D-09.
      3 vectors produced by pass 52 Test12= 2.23D-13 1.00D-09 XBig12= 7.67D-15 2.92D-09.
      3 vectors produced by pass 53 Test12= 2.23D-13 1.00D-09 XBig12= 9.92D-15 2.78D-09.
      3 vectors produced by pass 54 Test12= 2.23D-13 1.00D-09 XBig12= 5.76D-15 2.42D-09.
      3 vectors produced by pass 55 Test12= 2.23D-13 1.00D-09 XBig12= 9.29D-15 2.73D-09.
      3 vectors produced by pass 56 Test12= 2.23D-13 1.00D-09 XBig12= 9.35D-15 2.90D-09.
      3 vectors produced by pass 57 Test12= 2.23D-13 1.00D-09 XBig12= 1.23D-14 2.94D-09.
      3 vectors produced by pass 58 Test12= 2.23D-13 1.00D-09 XBig12= 6.79D-15 2.19D-09.
      3 vectors produced by pass 59 Test12= 2.23D-13 1.00D-09 XBig12= 7.72D-15 2.62D-09.
      3 vectors produced by pass 60 Test12= 2.23D-13 1.00D-09 XBig12= 7.32D-15 2.67D-09.
      3 vectors produced by pass 61 Test12= 2.23D-13 1.00D-09 XBig12= 1.07D-14 2.93D-09.
      2 vectors produced by pass 62 Test12= 2.23D-13 1.00D-09 XBig12= 4.49D-15 1.86D-09.
 InvSVY:  IOpt=1 It=  1 EMax= 9.95D-14
 Solved reduced A of dimension  1240 with   105 vectors.
 Isotropic polarizability for W=    0.000000     1246.72 Bohr**3.
 End of Minotr F.D. properties file   721 does not exist.
 End of Minotr F.D. properties file   722 does not exist.
 End of Minotr F.D. properties file   788 does not exist.

 **********************************************************************

            Population analysis using the SCF density.

 **********************************************************************

 Orbital symmetries:
 Alpha Orbitals:
       Occupied  (A) (A) (A) (A) (A) (A) (A) (A) (A) (A) (A) (A)
                 (A) (A) (A) (A) (A) (A) (A) (A) (A) (A) (A) (A)
                 (A) (A) (A) (A) (A) (A) (A) (A) (A) (A) (A) (A)
                 (A) (A) (A) (A) (A) (A) (A) (A) (A) (A) (A) (A)
                 (A) (A) (A) (A) (A) (A) (A) (A) (A) (A) (A) (A)
                 (A) (A) (A) (A) (A) (A) (A) (A) (A) (A) (A) (A)
                 (A) (A) (A) (A) (A) (A) (A) (A) (A) (A) (A) (A)
                 (A) (A) (A) (A) (A) (A) (A) (A) (A) (A) (A) (A)
                 (A) (A) (A) (A) (A) (A) (A) (A) (A) (A) (A) (A)
                 (A) (A) (A) (A) (A) (A) (A) (A) (A) (A) (A) (A)
                 (A) (A) (A) (A) (A) (A) (A) (A) (A) (A) (A) (A)
                 (A) (A) (A) (A) (A) (A) (A) (A) (A) (A) (A) (A)
                 (A) (A) (A) (A) (A) (A) (A) (A) (A) (A) (A) (A)
                 (A) (A) (A) (A) (A) (A) (A) (A) (A) (A) (A) (A)
                 (A) (A) (A) (A) (A) (A) (A) (A) (A) (A) (A) (A)
                 (A) (A) (A) (A) (A) (A) (A) (A) (A) (A) (A) (A)
                 (A)
       Virtual   (A) (A) (A) (A) (A) (A) (A) (A) (A) (A) (A) (A)
                 (A) (A) (A) (A) (A) (A) (A) (A) (A) (A) (A) (A)
                 (A) (A) (A) (A) (A) (A) (A) (A) (A) (A) (A) (A)
                 (A) (A) (A) (A) (A) (A) (A) (A) (A) (A) (A) (A)
                 (A) (A) (A) (A) (A) (A) (A) (A) (A) (A) (A) (A)
                 (A) (A) (A) (A) (A) (A) (A) (A) (A) (A) (A) (A)
                 (A) (A) (A) (A) (A) (A) (A) (A) (A) (A) (A) (A)
                 (A) (A) (A) (A) (A) (A) (A) (A) (A) (A) (A) (A)
                 (A) (A) (A) (A) (A) (A) (A) (A) (A) (A) (A) (A)
                 (A) (A) (A) (A) (A) (A) (A) (A) (A) (A) (A) (A)
                 (A) (A) (A) (A) (A) (A) (A) (A) (A) (A) (A) (A)
                 (A) (A) (A) (A) (A) (A) (A) (A) (A) (A) (A) (A)
                 (A) (A) (A) (A) (A) (A) (A) (A) (A) (A) (A) (A)
                 (A) (A) (A) (A) (A) (A) (A) (A) (A) (A) (A) (A)
                 (A) (A) (A) (A) (A) (A) (A) (A) (A) (A) (A) (A)
                 (A) (A) (A) (A) (A) (A) (A) (A) (A) (A) (A) (A)
                 (A) (A) (A) (A) (A) (A) (A) (A) (A) (A) (A) (A)
                 (A) (A) (A) (A) (A) (A) (A) (A) (A) (A) (A) (A)
                 (A) (A) (A) (A) (A) (A) (A) (A) (A) (A) (A) (A)
                 (A) (A) (A) (A) (A) (A) (A) (A) (A) (A) (A) (A)
                 (A) (A) (A) (A) (A) (A) (A) (A) (A) (A) (A) (A)
                 (A) (A) (A) (A) (A) (A) (A) (A) (A) (A) (A) (A)
                 (A) (A) (A) (A) (A) (A) (A) (A) (A) (A) (A) (A)
                 (A) (A) (A) (A) (A) (A) (A) (A) (A) (A) (A) (A)
                 (A) (A) (A) (A) (A) (A) (A) (A) (A) (A) (A) (A)
                 (A) (A) (A) (A) (A) (A) (A) (A) (A) (A) (A) (A)
                 (A) (A) (A) (A) (A) (A) (A) (A) (A) (A) (A) (A)
                 (A) (A) (A) (A) (A) (A) (A) (A) (A) (A) (A) (A)
                 (A) (A) (A) (A) (A) (A) (A) (A) (A) (A) (A) (A)
                 (A) (A) (A) (A) (A) (A) (A) (A) (A) (A) (A) (A)
                 (A) (A) (A) (A) (A) (A) (A) (A) (A) (A) (A) (A)
                 (A) (A) (A) (A) (A) (A) (A) (A) (A) (A) (A) (A)
                 (A) (A) (A) (A) (A) (A) (A) (A) (A) (A) (A) (A)
                 (A) (A) (A) (A) (A) (A) (A) (A) (A) (A) (A) (A)
                 (A) (A) (A) (A) (A) (A) (A) (A) (A) (A) (A) (A)
                 (A) (A) (A) (A) (A) (A) (A) (A) (A) (A) (A) (A)
                 (A) (A) (A) (A) (A) (A) (A) (A) (A) (A) (A) (A)
                 (A) (A) (A) (A) (A) (A) (A) (A) (A) (A) (A) (A)
                 (A) (A) (A) (A) (A) (A) (A) (A) (A) (A) (A) (A)
                 (A) (A) (A) (A) (A) (A) (A) (A) (A) (A) (A) (A)
                 (A) (A) (A) (A) (A) (A) (A) (A) (A) (A) (A) (A)
                 (A) (A) (A) (A) (A) (A) (A) (A) (A) (A) (A) (A)
                 (A) (A) (A) (A) (A) (A) (A) (A) (A) (A) (A) (A)
                 (A) (A) (A) (A) (A) (A) (A) (A) (A) (A) (A) (A)
                 (A) (A) (A) (A) (A) (A) (A) (A) (A) (A) (A) (A)
                 (A) (A) (A) (A) (A) (A) (A) (A) (A) (A) (A) (A)
                 (A) (A) (A) (A) (A) (A) (A) (A) (A) (A) (A) (A)
                 (A) (A) (A) (A) (A) (A) (A) (A) (A) (A) (A) (A)
                 (A) (A) (A)
 Beta  Orbitals:
       Occupied  (A) (A) (A) (A) (A) (A) (A) (A) (A) (A) (A) (A)
                 (A) (A) (A) (A) (A) (A) (A) (A) (A) (A) (A) (A)
                 (A) (A) (A) (A) (A) (A) (A) (A) (A) (A) (A) (A)
                 (A) (A) (A) (A) (A) (A) (A) (A) (A) (A) (A) (A)
                 (A) (A) (A) (A) (A) (A) (A) (A) (A) (A) (A) (A)
                 (A) (A) (A) (A) (A) (A) (A) (A) (A) (A) (A) (A)
                 (A) (A) (A) (A) (A) (A) (A) (A) (A) (A) (A) (A)
                 (A) (A) (A) (A) (A) (A) (A) (A) (A) (A) (A) (A)
                 (A) (A) (A) (A) (A) (A) (A) (A) (A) (A) (A) (A)
                 (A) (A) (A) (A) (A) (A) (A) (A) (A) (A) (A) (A)
                 (A) (A) (A) (A) (A) (A) (A) (A) (A) (A) (A) (A)
                 (A) (A) (A) (A) (A) (A) (A) (A) (A) (A) (A) (A)
                 (A) (A) (A) (A) (A) (A) (A) (A) (A) (A) (A) (A)
                 (A) (A) (A) (A) (A) (A) (A) (A) (A) (A) (A) (A)
                 (A) (A) (A) (A) (A) (A) (A) (A) (A) (A) (A) (A)
                 (A) (A) (A) (A) (A) (A) (A) (A) (A) (A) (A) (A)
       Virtual   (A) (A) (A) (A) (A) (A) (A) (A) (A) (A) (A) (A)
                 (A) (A) (A) (A) (A) (A) (A) (A) (A) (A) (A) (A)
                 (A) (A) (A) (A) (A) (A) (A) (A) (A) (A) (A) (A)
                 (A) (A) (A) (A) (A) (A) (A) (A) (A) (A) (A) (A)
                 (A) (A) (A) (A) (A) (A) (A) (A) (A) (A) (A) (A)
                 (A) (A) (A) (A) (A) (A) (A) (A) (A) (A) (A) (A)
                 (A) (A) (A) (A) (A) (A) (A) (A) (A) (A) (A) (A)
                 (A) (A) (A) (A) (A) (A) (A) (A) (A) (A) (A) (A)
                 (A) (A) (A) (A) (A) (A) (A) (A) (A) (A) (A) (A)
                 (A) (A) (A) (A) (A) (A) (A) (A) (A) (A) (A) (A)
                 (A) (A) (A) (A) (A) (A) (A) (A) (A) (A) (A) (A)
                 (A) (A) (A) (A) (A) (A) (A) (A) (A) (A) (A) (A)
                 (A) (A) (A) (A) (A) (A) (A) (A) (A) (A) (A) (A)
                 (A) (A) (A) (A) (A) (A) (A) (A) (A) (A) (A) (A)
                 (A) (A) (A) (A) (A) (A) (A) (A) (A) (A) (A) (A)
                 (A) (A) (A) (A) (A) (A) (A) (A) (A) (A) (A) (A)
                 (A) (A) (A) (A) (A) (A) (A) (A) (A) (A) (A) (A)
                 (A) (A) (A) (A) (A) (A) (A) (A) (A) (A) (A) (A)
                 (A) (A) (A) (A) (A) (A) (A) (A) (A) (A) (A) (A)
                 (A) (A) (A) (A) (A) (A) (A) (A) (A) (A) (A) (A)
                 (A) (A) (A) (A) (A) (A) (A) (A) (A) (A) (A) (A)
                 (A) (A) (A) (A) (A) (A) (A) (A) (A) (A) (A) (A)
                 (A) (A) (A) (A) (A) (A) (A) (A) (A) (A) (A) (A)
                 (A) (A) (A) (A) (A) (A) (A) (A) (A) (A) (A) (A)
                 (A) (A) (A) (A) (A) (A) (A) (A) (A) (A) (A) (A)
                 (A) (A) (A) (A) (A) (A) (A) (A) (A) (A) (A) (A)
                 (A) (A) (A) (A) (A) (A) (A) (A) (A) (A) (A) (A)
                 (A) (A) (A) (A) (A) (A) (A) (A) (A) (A) (A) (A)
                 (A) (A) (A) (A) (A) (A) (A) (A) (A) (A) (A) (A)
                 (A) (A) (A) (A) (A) (A) (A) (A) (A) (A) (A) (A)
                 (A) (A) (A) (A) (A) (A) (A) (A) (A) (A) (A) (A)
                 (A) (A) (A) (A) (A) (A) (A) (A) (A) (A) (A) (A)
                 (A) (A) (A) (A) (A) (A) (A) (A) (A) (A) (A) (A)
                 (A) (A) (A) (A) (A) (A) (A) (A) (A) (A) (A) (A)
                 (A) (A) (A) (A) (A) (A) (A) (A) (A) (A) (A) (A)
                 (A) (A) (A) (A) (A) (A) (A) (A) (A) (A) (A) (A)
                 (A) (A) (A) (A) (A) (A) (A) (A) (A) (A) (A) (A)
                 (A) (A) (A) (A) (A) (A) (A) (A) (A) (A) (A) (A)
                 (A) (A) (A) (A) (A) (A) (A) (A) (A) (A) (A) (A)
                 (A) (A) (A) (A) (A) (A) (A) (A) (A) (A) (A) (A)
                 (A) (A) (A) (A) (A) (A) (A) (A) (A) (A) (A) (A)
                 (A) (A) (A) (A) (A) (A) (A) (A) (A) (A) (A) (A)
                 (A) (A) (A) (A) (A) (A) (A) (A) (A) (A) (A) (A)
                 (A) (A) (A) (A) (A) (A) (A) (A) (A) (A) (A) (A)
                 (A) (A) (A) (A) (A) (A) (A) (A) (A) (A) (A) (A)
                 (A) (A) (A) (A) (A) (A) (A) (A) (A) (A) (A) (A)
                 (A) (A) (A) (A) (A) (A) (A) (A) (A) (A) (A) (A)
                 (A) (A) (A) (A) (A) (A) (A) (A) (A) (A) (A) (A)
                 (A) (A) (A) (A)
 The electronic state is 2-A.
 Alpha  occ. eigenvalues --  -66.13075 -66.12884 -66.12153 -66.11860 -66.11399
 Alpha  occ. eigenvalues --  -66.11288 -66.11238 -66.11192 -66.11187 -66.11143
 Alpha  occ. eigenvalues --  -66.11069 -66.10732 -66.10237 -66.10096 -66.09891
 Alpha  occ. eigenvalues --  -66.09768 -66.09394 -66.09381 -66.09074 -66.08730
 Alpha  occ. eigenvalues --  -66.08593 -66.08586  -5.30267  -5.30095  -5.29448
 Alpha  occ. eigenvalues --   -5.28903  -5.28686  -5.28651  -5.28569  -5.28491
 Alpha  occ. eigenvalues --   -5.28470  -5.28438  -5.28300  -5.28207  -5.27582
 Alpha  occ. eigenvalues --   -5.27443  -5.27242  -5.26985  -5.26887  -5.26838
 Alpha  occ. eigenvalues --   -5.26636  -5.25876  -5.25811  -5.25763  -3.66456
 Alpha  occ. eigenvalues --   -3.66283  -3.65887  -3.65757  -3.65708  -3.65593
 Alpha  occ. eigenvalues --   -3.65552  -3.65104  -3.64979  -3.64775  -3.64708
 Alpha  occ. eigenvalues --   -3.64634  -3.64520  -3.64489  -3.64478  -3.64455
 Alpha  occ. eigenvalues --   -3.64404  -3.64400  -3.64370  -3.64366  -3.64356
 Alpha  occ. eigenvalues --   -3.64330  -3.64298  -3.64296  -3.64284  -3.64272
 Alpha  occ. eigenvalues --   -3.64244  -3.64220  -3.64208  -3.64178  -3.64140
 Alpha  occ. eigenvalues --   -3.64048  -3.64046  -3.64011  -3.63998  -3.63926
 Alpha  occ. eigenvalues --   -3.63416  -3.63391  -3.63371  -3.63318  -3.63284
 Alpha  occ. eigenvalues --   -3.63239  -3.63184  -3.62922  -3.62875  -3.62841
 Alpha  occ. eigenvalues --   -3.62759  -3.62721  -3.62713  -3.62679  -3.62665
 Alpha  occ. eigenvalues --   -3.62618  -3.62614  -3.62543  -3.62450  -3.62408
 Alpha  occ. eigenvalues --   -3.62369  -3.61703  -3.61668  -3.61646  -3.61593
 Alpha  occ. eigenvalues --   -3.61568  -3.61546  -3.61545  -3.61540  -3.61444
 Alpha  occ. eigenvalues --   -0.64504  -0.63714  -0.62907  -0.61230  -0.60410
 Alpha  occ. eigenvalues --   -0.58998  -0.57692  -0.57423  -0.57108  -0.56004
 Alpha  occ. eigenvalues --   -0.55749  -0.55452  -0.54938  -0.54593  -0.53774
 Alpha  occ. eigenvalues --   -0.53494  -0.52589  -0.52252  -0.51361  -0.50868
 Alpha  occ. eigenvalues --   -0.48655  -0.47539  -0.46800  -0.46599  -0.46231
 Alpha  occ. eigenvalues --   -0.44280  -0.43800  -0.43281  -0.42910  -0.42624
 Alpha  occ. eigenvalues --   -0.41641  -0.40707  -0.40420  -0.40230  -0.38708
 Alpha  occ. eigenvalues --   -0.38676  -0.38208  -0.37965  -0.37933  -0.37809
 Alpha  occ. eigenvalues --   -0.37594  -0.37473  -0.37036  -0.36766  -0.35950
 Alpha  occ. eigenvalues --   -0.35892  -0.35765  -0.34916  -0.34713  -0.33217
 Alpha  occ. eigenvalues --   -0.32992  -0.32511  -0.31568  -0.31459  -0.30665
 Alpha  occ. eigenvalues --   -0.29780  -0.29625  -0.29441  -0.29231  -0.29150
 Alpha  occ. eigenvalues --   -0.29024  -0.28820  -0.28714  -0.28634  -0.28309
 Alpha  occ. eigenvalues --   -0.27878  -0.27572  -0.27389  -0.27098  -0.27032
 Alpha  occ. eigenvalues --   -0.26823  -0.26679  -0.26041  -0.25137  -0.23905
 Alpha  occ. eigenvalues --   -0.23316  -0.22591  -0.22224  -0.21142  -0.20460
 Alpha  occ. eigenvalues --   -0.20208  -0.19908  -0.19540
 Alpha virt. eigenvalues --   -0.13396  -0.12748  -0.12201  -0.11921  -0.08780
 Alpha virt. eigenvalues --   -0.07011  -0.06299  -0.05066  -0.04481  -0.04208
 Alpha virt. eigenvalues --   -0.03957  -0.03622  -0.03332  -0.03233  -0.02925
 Alpha virt. eigenvalues --   -0.02486  -0.02300  -0.02043  -0.01779  -0.01472
 Alpha virt. eigenvalues --   -0.01243  -0.01009  -0.00695  -0.00506  -0.00320
 Alpha virt. eigenvalues --   -0.00161   0.00010   0.00294   0.00480   0.00541
 Alpha virt. eigenvalues --    0.00730   0.00991   0.01224   0.01510   0.01692
 Alpha virt. eigenvalues --    0.01924   0.02025   0.02177   0.02334   0.02474
 Alpha virt. eigenvalues --    0.02707   0.03025   0.03102   0.03383   0.03509
 Alpha virt. eigenvalues --    0.03616   0.03715   0.03960   0.04124   0.04211
 Alpha virt. eigenvalues --    0.04235   0.04460   0.04690   0.04745   0.04811
 Alpha virt. eigenvalues --    0.05002   0.05251   0.05311   0.05463   0.05494
 Alpha virt. eigenvalues --    0.05682   0.05831   0.05887   0.06002   0.06154
 Alpha virt. eigenvalues --    0.06383   0.06521   0.06605   0.06824   0.06865
 Alpha virt. eigenvalues --    0.07160   0.07294   0.07525   0.07730   0.07851
 Alpha virt. eigenvalues --    0.08064   0.08148   0.08314   0.08652   0.08747
 Alpha virt. eigenvalues --    0.08891   0.09135   0.09435   0.09572   0.09729
 Alpha virt. eigenvalues --    0.09880   0.10401   0.10462   0.10589   0.10932
 Alpha virt. eigenvalues --    0.11181   0.11416   0.11498   0.11942   0.12130
 Alpha virt. eigenvalues --    0.12253   0.12526   0.12643   0.13058   0.13154
 Alpha virt. eigenvalues --    0.13326   0.13577   0.13968   0.14262   0.14665
 Alpha virt. eigenvalues --    0.14942   0.15147   0.15478   0.15916   0.15971
 Alpha virt. eigenvalues --    0.16114   0.16567   0.16778   0.16933   0.17194
 Alpha virt. eigenvalues --    0.17280   0.17454   0.17609   0.17743   0.18089
 Alpha virt. eigenvalues --    0.18166   0.18394   0.18696   0.18874   0.19093
 Alpha virt. eigenvalues --    0.19473   0.19802   0.20436   0.20471   0.20589
 Alpha virt. eigenvalues --    0.20847   0.21114   0.21297   0.21689   0.21911
 Alpha virt. eigenvalues --    0.22332   0.22672   0.22900   0.23236   0.23403
 Alpha virt. eigenvalues --    0.23754   0.23911   0.24095   0.24425   0.24742
 Alpha virt. eigenvalues --    0.24807   0.24876   0.25511   0.26140   0.26221
 Alpha virt. eigenvalues --    0.26370   0.26554   0.26910   0.27280   0.27408
 Alpha virt. eigenvalues --    0.27565   0.27946   0.28316   0.28412   0.28667
 Alpha virt. eigenvalues --    0.29144   0.29210   0.29329   0.29598   0.29770
 Alpha virt. eigenvalues --    0.30245   0.30465   0.30839   0.30867   0.31301
 Alpha virt. eigenvalues --    0.31603   0.31721   0.31960   0.32336   0.32696
 Alpha virt. eigenvalues --    0.32882   0.33027   0.33213   0.33472   0.33525
 Alpha virt. eigenvalues --    0.33675   0.34393   0.34463   0.34611   0.34829
 Alpha virt. eigenvalues --    0.35424   0.35487   0.35523   0.35876   0.36287
 Alpha virt. eigenvalues --    0.36543   0.36688   0.36914   0.37026   0.37504
 Alpha virt. eigenvalues --    0.37872   0.38197   0.38255   0.38568   0.38985
 Alpha virt. eigenvalues --    0.39208   0.39633   0.39960   0.40206   0.40369
 Alpha virt. eigenvalues --    0.40718   0.41243   0.41781   0.42004   0.42170
 Alpha virt. eigenvalues --    0.42372   0.43364   0.43443   0.44002   0.44266
 Alpha virt. eigenvalues --    0.44784   0.45055   0.45472   0.46219   0.46365
 Alpha virt. eigenvalues --    0.47028   0.47331   0.48107   0.48266   0.48625
 Alpha virt. eigenvalues --    0.49398   0.49841   0.50110   0.50804   0.51160
 Alpha virt. eigenvalues --    0.51454   0.51618   0.52170   0.52537   0.52745
 Alpha virt. eigenvalues --    0.53436   0.53510   0.53821   0.54013   0.54407
 Alpha virt. eigenvalues --    0.55007   0.55251   0.55551   0.55910   0.56350
 Alpha virt. eigenvalues --    0.56629   0.56897   0.57429   0.57573   0.57957
 Alpha virt. eigenvalues --    0.58124   0.58582   0.58673   0.59108   0.59774
 Alpha virt. eigenvalues --    0.59849   0.60198   0.60271   0.60520   0.60583
 Alpha virt. eigenvalues --    0.60753   0.61432   0.61466   0.61505   0.61788
 Alpha virt. eigenvalues --    0.62116   0.62346   0.62686   0.63284   0.63338
 Alpha virt. eigenvalues --    0.63638   0.64062   0.64212   0.64616   0.64708
 Alpha virt. eigenvalues --    0.64995   0.65156   0.65472   0.65747   0.66016
 Alpha virt. eigenvalues --    0.66329   0.66768   0.66990   0.67149   0.67604
 Alpha virt. eigenvalues --    0.68468   0.68595   0.69313   0.69647   0.69955
 Alpha virt. eigenvalues --    0.70156   0.70296   0.70630   0.70776   0.70957
 Alpha virt. eigenvalues --    0.71187   0.71334   0.71577   0.72010   0.72253
 Alpha virt. eigenvalues --    0.72575   0.72920   0.73493   0.73663   0.73901
 Alpha virt. eigenvalues --    0.74031   0.74439   0.74580   0.74894   0.75098
 Alpha virt. eigenvalues --    0.75633   0.76263   0.76379   0.76512   0.77369
 Alpha virt. eigenvalues --    0.77931   0.78007   0.78196   0.78561   0.78985
 Alpha virt. eigenvalues --    0.79226   0.79333   0.79532   0.79876   0.80394
 Alpha virt. eigenvalues --    0.80815   0.81240   0.82074   0.82672   0.82913
 Alpha virt. eigenvalues --    0.83703   0.84371   0.84694   0.84895   0.86072
 Alpha virt. eigenvalues --    0.86377   0.87535   0.88605   0.89096   0.90106
 Alpha virt. eigenvalues --    0.90498   0.91282   0.91651   0.92336   0.92925
 Alpha virt. eigenvalues --    0.93689   0.94698   0.94935   0.95206   0.95680
 Alpha virt. eigenvalues --    0.95858   0.96883   0.97502   0.97795   0.98637
 Alpha virt. eigenvalues --    0.99268   0.99533   0.99901   1.00792   1.01257
 Alpha virt. eigenvalues --    1.01622   1.02277   1.02645   1.02990   1.03665
 Alpha virt. eigenvalues --    1.04989   1.05732   1.06580   1.07784   1.08928
 Alpha virt. eigenvalues --    1.09338   1.09551   1.09970   1.10544   1.11713
 Alpha virt. eigenvalues --    1.12055   1.12524   1.14246   1.14653   1.15131
 Alpha virt. eigenvalues --    1.15533   1.16842   1.17730   1.19492   1.20255
 Alpha virt. eigenvalues --    1.20578   1.21216   1.22512   1.23346   1.23656
 Alpha virt. eigenvalues --    1.23751   1.24528   1.25605   1.26238   1.26959
 Alpha virt. eigenvalues --    1.27319   1.27487   1.27743   1.27854   1.28964
 Alpha virt. eigenvalues --    1.29931   1.30387   1.30521   1.31350   1.31649
 Alpha virt. eigenvalues --    1.32084   1.33027   1.33270   1.34022   1.34241
 Alpha virt. eigenvalues --    1.35148   1.35535   1.35776   1.36391   1.36907
 Alpha virt. eigenvalues --    1.37046   1.37296   1.37732   1.38058   1.38199
 Alpha virt. eigenvalues --    1.38251   1.38753   1.39349   1.39535   1.40047
 Alpha virt. eigenvalues --    1.40802   1.41054   1.41471   1.42575   1.42806
 Alpha virt. eigenvalues --    1.43067   1.43625   1.43762   1.44567   1.44698
 Alpha virt. eigenvalues --    1.45298   1.45744   1.46025   1.46875   1.47380
 Alpha virt. eigenvalues --    1.47945   1.48277   1.49423   1.49572   1.50290
 Alpha virt. eigenvalues --    1.51171   1.51713   1.52107   1.53383   1.53603
 Alpha virt. eigenvalues --    1.54075   1.55628   1.57829   1.58485   1.59817
 Alpha virt. eigenvalues --    1.61396   1.65123   5.36953   5.38030   5.39540
 Alpha virt. eigenvalues --    5.40575   5.41111   5.42279   5.43415   5.43845
 Alpha virt. eigenvalues --    5.46075   5.47183   5.48377   5.49287   5.50895
 Alpha virt. eigenvalues --    5.51657   5.52770   5.56058   5.56761   5.57342
 Alpha virt. eigenvalues --    5.58353   5.58707   5.60478   5.64956  11.11648
 Alpha virt. eigenvalues --   11.20854  11.22213  11.23454  11.23603  11.26320
 Alpha virt. eigenvalues --   11.27324  11.27515  11.27916  11.28028  11.28197
 Alpha virt. eigenvalues --   11.28786  11.29078  11.29230  11.30420  11.30783
 Alpha virt. eigenvalues --   11.31093  11.31594  11.31997  11.32154  11.32718
 Alpha virt. eigenvalues --   11.33222  11.33371  11.33951  11.34373  11.34531
 Alpha virt. eigenvalues --   11.34558  11.34753  11.35109  11.35752  11.35866
 Alpha virt. eigenvalues --   11.36281  11.36480  11.36811  11.37678  11.38147
 Alpha virt. eigenvalues --   11.38256  11.39052  11.39315  11.39867  11.40395
 Alpha virt. eigenvalues --   11.40790  11.41606  11.42131  11.42503  11.42805
 Alpha virt. eigenvalues --   11.43382  11.44434  11.44625  11.45271  11.45622
 Alpha virt. eigenvalues --   11.46576  11.46648  11.46793  11.47516  11.48558
 Alpha virt. eigenvalues --   11.49087  11.50508  11.51043  11.52338  11.54005
 Alpha virt. eigenvalues --   11.55132  11.56484  11.56925  11.59517  11.61151
 Alpha virt. eigenvalues --   11.63495  11.95474  12.14074  12.70472  12.93882
 Alpha virt. eigenvalues --   13.16784  14.29627  14.32089  14.84109  15.22067
 Alpha virt. eigenvalues --   15.39829  15.52504 140.81955 140.82857 140.85185
 Alpha virt. eigenvalues --  140.86010 140.86713 140.88251 140.89146 140.89938
 Alpha virt. eigenvalues --  140.92230 140.93487 140.94587 140.95850 140.97421
 Alpha virt. eigenvalues --  140.98266 140.99510 141.03144 141.03812 141.04423
 Alpha virt. eigenvalues --  141.05818 141.06641 141.09419 141.14019
  Beta  occ. eigenvalues --  -66.13075 -66.12884 -66.12156 -66.11855 -66.11400
  Beta  occ. eigenvalues --  -66.11274 -66.11237 -66.11192 -66.11187 -66.11143
  Beta  occ. eigenvalues --  -66.11069 -66.10713 -66.10235 -66.10096 -66.09760
  Beta  occ. eigenvalues --  -66.09588 -66.09381 -66.09377 -66.09058 -66.08730
  Beta  occ. eigenvalues --  -66.08593 -66.08570  -5.30266  -5.30095  -5.29449
  Beta  occ. eigenvalues --   -5.28898  -5.28686  -5.28650  -5.28569  -5.28492
  Beta  occ. eigenvalues --   -5.28470  -5.28438  -5.28281  -5.28186  -5.27580
  Beta  occ. eigenvalues --   -5.27443  -5.26974  -5.26907  -5.26873  -5.26833
  Beta  occ. eigenvalues --   -5.26617  -5.25877  -5.25794  -5.25763  -3.66454
  Beta  occ. eigenvalues --   -3.66283  -3.65886  -3.65756  -3.65708  -3.65593
  Beta  occ. eigenvalues --   -3.65568  -3.65102  -3.64979  -3.64770  -3.64696
  Beta  occ. eigenvalues --   -3.64629  -3.64521  -3.64489  -3.64478  -3.64453
  Beta  occ. eigenvalues --   -3.64402  -3.64400  -3.64369  -3.64366  -3.64358
  Beta  occ. eigenvalues --   -3.64330  -3.64298  -3.64298  -3.64283  -3.64272
  Beta  occ. eigenvalues --   -3.64244  -3.64221  -3.64190  -3.64178  -3.64140
  Beta  occ. eigenvalues --   -3.64035  -3.64034  -3.63991  -3.63955  -3.63897
  Beta  occ. eigenvalues --   -3.63413  -3.63386  -3.63317  -3.63284  -3.63239
  Beta  occ. eigenvalues --   -3.63184  -3.62832  -3.62750  -3.62725  -3.62709
  Beta  occ. eigenvalues --   -3.62689  -3.62672  -3.62668  -3.62630  -3.62610
  Beta  occ. eigenvalues --   -3.62605  -3.62540  -3.62504  -3.62413  -3.62397
  Beta  occ. eigenvalues --   -3.62351  -3.61703  -3.61669  -3.61631  -3.61593
  Beta  occ. eigenvalues --   -3.61558  -3.61547  -3.61545  -3.61503  -3.61444
  Beta  occ. eigenvalues --   -0.64420  -0.63636  -0.62855  -0.61203  -0.60315
  Beta  occ. eigenvalues --   -0.58913  -0.57634  -0.57407  -0.56929  -0.55968
  Beta  occ. eigenvalues --   -0.55654  -0.55372  -0.54815  -0.54561  -0.53747
  Beta  occ. eigenvalues --   -0.53415  -0.52494  -0.52127  -0.51258  -0.50771
  Beta  occ. eigenvalues --   -0.48601  -0.47405  -0.46787  -0.46563  -0.46059
  Beta  occ. eigenvalues --   -0.44231  -0.43744  -0.43234  -0.42771  -0.42480
  Beta  occ. eigenvalues --   -0.41427  -0.40641  -0.40323  -0.39975  -0.38708
  Beta  occ. eigenvalues --   -0.38666  -0.38208  -0.37923  -0.37881  -0.37778
  Beta  occ. eigenvalues --   -0.37556  -0.37449  -0.37016  -0.36751  -0.35939
  Beta  occ. eigenvalues --   -0.35884  -0.35745  -0.34897  -0.34571  -0.33158
  Beta  occ. eigenvalues --   -0.32816  -0.32468  -0.31460  -0.31274  -0.30622
  Beta  occ. eigenvalues --   -0.29759  -0.29502  -0.29392  -0.29189  -0.29010
  Beta  occ. eigenvalues --   -0.28936  -0.28736  -0.28610  -0.28555  -0.28219
  Beta  occ. eigenvalues --   -0.27819  -0.27364  -0.27252  -0.27039  -0.27024
  Beta  occ. eigenvalues --   -0.26736  -0.26498  -0.26020  -0.25071  -0.23832
  Beta  occ. eigenvalues --   -0.23253  -0.22491  -0.21924  -0.21035  -0.20331
  Beta  occ. eigenvalues --   -0.20014  -0.19624
  Beta virt. eigenvalues --   -0.13356  -0.12971  -0.12687  -0.11922  -0.11690
  Beta virt. eigenvalues --   -0.08580  -0.06841  -0.06218  -0.05040  -0.04412
  Beta virt. eigenvalues --   -0.04120  -0.03934  -0.03490  -0.03288  -0.03153
  Beta virt. eigenvalues --   -0.02880  -0.02397  -0.02209  -0.01963  -0.01724
  Beta virt. eigenvalues --   -0.01442  -0.01131  -0.00958  -0.00669  -0.00483
  Beta virt. eigenvalues --   -0.00230  -0.00122   0.00153   0.00319   0.00533
  Beta virt. eigenvalues --    0.00662   0.00769   0.01023   0.01323   0.01650
  Beta virt. eigenvalues --    0.01740   0.02013   0.02106   0.02224   0.02418
  Beta virt. eigenvalues --    0.02526   0.02828   0.03072   0.03191   0.03485
  Beta virt. eigenvalues --    0.03636   0.03653   0.03782   0.03984   0.04187
  Beta virt. eigenvalues --    0.04274   0.04300   0.04484   0.04708   0.04767
  Beta virt. eigenvalues --    0.04838   0.05038   0.05293   0.05346   0.05519
  Beta virt. eigenvalues --    0.05533   0.05763   0.05888   0.05969   0.06017
  Beta virt. eigenvalues --    0.06275   0.06422   0.06556   0.06669   0.06897
  Beta virt. eigenvalues --    0.06998   0.07209   0.07388   0.07539   0.07868
  Beta virt. eigenvalues --    0.07897   0.08090   0.08239   0.08361   0.08704
  Beta virt. eigenvalues --    0.08816   0.08922   0.09196   0.09488   0.09620
  Beta virt. eigenvalues --    0.09774   0.09947   0.10434   0.10554   0.10688
  Beta virt. eigenvalues --    0.10973   0.11254   0.11446   0.11587   0.12016
  Beta virt. eigenvalues --    0.12165   0.12286   0.12555   0.12677   0.13126
  Beta virt. eigenvalues --    0.13242   0.13397   0.13687   0.13990   0.14381
  Beta virt. eigenvalues --    0.14685   0.14985   0.15183   0.15503   0.15943
  Beta virt. eigenvalues --    0.16041   0.16183   0.16605   0.16806   0.16985
  Beta virt. eigenvalues --    0.17232   0.17310   0.17527   0.17695   0.17832
[...]
 .,0.,0.,0.,0.,0.,0.,0.,0.,0.,0.,0.,0.,0.,0.,0.,0.,0.,0.,0.,0.,0.,0.,0.
 ,0.,0.,0.,0.,0.,0.,0.,0.,0.,0.,0.,0.,0.,0.,0.,0.,0.,0.,0.,0.,0.,0.,0.,
 0.,0.,0.,0.,0.,0.,0.,0.,0.,0.00001199,0.00003954,0.00004187,-0.0001123
 2,0.00018406,0.00015426,0.00066462,-0.00007355,-0.00089141,-0.00017997
 ,0.00127126,0.00153394,-0.00067804,-0.00026510,-0.00124429,-0.00000728
 ,-0.00001529,-0.00002169,-0.00004271,-0.00007110,-0.00018427,0.0003071
 0,-0.00008104,-0.00066858,-0.00511420,-0.00186229,-0.00244873,0.005903
 29,-0.00168547,-0.00313258,-0.00014985,0.00002038,-0.00075874,0.000030
 17,0.00001621,-0.00007796,-0.00001494,0.00006027,0.00003010,0.00008217
 ,0.00010250,-0.00029679,0.00004546,0.00019681,0.00006464,0.00058331,0.
 00047255,-0.00110430,-0.00007592,0.00048902,0.00039217,-0.02576381,0.0
 0720298,-0.02813540,-0.00162009,0.00386318,0.00161262,0.02535791,0.008
 55452,-0.02995762,0.00286781,0.00381616,0.00191450,-0.00028971,0.00000
 661,-0.00214932,0.00026849,0.00021167,0.00053487,0.00003245,-0.0001321
 6,0.00013534,-0.00006088,0.00000383,0.00001633,0.00027959,-0.00028184,
 0.00061546,-0.00028063,-0.00019362,0.00011952,0.00120343,-0.00157391,0
 .00280356,-0.00035911,0.00002904,0.00007119,-0.00144475,-0.00897502,0.
 05998952,0.,0.,0.,0.,0.,0.,0.,0.,0.,0.,0.,0.,0.,0.,0.,0.,0.,0.,0.,0.,0
 .,0.,0.,0.,0.,0.,0.,0.,0.,0.,0.,0.,0.,0.,0.,0.,0.,0.,0.,0.,0.,0.,0.,0.
 ,0.,0.,0.,0.,0.,0.,0.,0.,0.,0.,0.,0.,0.,0.,0.,0.,0.,0.,0.,0.,0.,0.,0.,
 0.,0.,0.,0.,0.,0.,0.,0.,0.,0.,0.,0.,0.,0.,0.,0.,0.,-0.00006139,0.00000
 610,-0.00007392,0.00016458,0.00003043,-0.00026628,-0.00185370,-0.00242
 784,-0.00080681,0.00367637,0.00025786,-0.00033902,-0.00182308,0.002454
 49,0.00075954,0.00001677,0.00000445,0.00002094,0.00006570,0.00003310,0
 .00011681,-0.00040127,-0.00008869,0.00016357,0.00087913,0.00652623,-0.
 00463662,0.00161614,-0.00677832,0.00496895,-0.00011230,0.00051797,-0.0
 0017712,-0.00005206,0.00006354,-0.00000834,-0.00008640,-0.00006704,0.0
 0000244,-0.00005218,0.00007059,0.00002032,-0.00015681,-0.00008213,0.00
 011295,-0.00005746,-0.00034516,-0.00008783,0.00009698,0.00060854,0.000
 64144,0.00278272,0.00726986,0.00377526,-0.07129421,-0.02916321,-0.0187
 9907,0.00258716,-0.00778813,-0.00332457,-0.06893081,0.02926433,0.01774
 611,-0.00004591,-0.00024268,-0.00002739,-0.00055780,-0.00056761,-0.000
 62120,-0.00003355,-0.00002141,0.00001852,0.00004798,0.00002235,-0.0000
 9784,0.00000367,0.00007222,-0.00009947,0.00007470,-0.00013255,-0.00026
 870,-0.00050344,-0.00010504,0.00042842,-0.00465715,-0.00012290,-0.0029
 5163,-0.01853115,0.00091521,-0.00078618,0.16027565,0.,0.,0.,0.,0.,0.,0
 .,0.,0.,0.,0.,0.,0.,0.,0.,0.,0.,0.,0.,0.,0.,0.,0.,0.,0.,0.,0.,0.,0.,0.
 ,0.,0.,0.,0.,0.,0.,0.,0.,0.,0.,0.,0.,0.,0.,0.,0.,0.,0.,0.,0.,0.,0.,0.,
 0.,0.,0.,0.,0.,0.,0.,0.,0.,0.,0.,0.,0.,0.,0.,0.,0.,0.,0.,0.,0.,0.,0.,0
 .,0.,0.,0.,0.,0.,0.,0.,-0.00000612,-0.00001297,-0.00004047,-0.00000633
 ,-0.00014700,-0.00008113,-0.00114801,-0.00311866,-0.00011077,-0.000154
 16,-0.00120567,0.00110175,0.00132175,-0.00331818,0.00003713,0.00000018
 ,0.00000449,0.00001055,0.00000218,0.00001321,0.00005414,-0.00001459,0.
 00014083,0.00009554,0.00541678,0.00416410,0.00239584,-0.00591864,0.004
 26454,0.00352800,0.00009922,-0.00002212,0.00005068,-0.00002934,0.00001
 043,0.00003147,0.00000413,-0.00003767,-0.00008482,-0.00006657,-0.00008
 656,0.00016004,0.00007309,-0.00012543,-0.00024934,-0.00009831,-0.00011
 900,0.00056341,0.00030765,-0.00057012,-0.00111689,0.00631569,-0.002192
 12,0.00037513,-0.02126054,-0.02897578,-0.01457691,-0.00527960,-0.00175
 956,0.00079663,0.02171827,-0.02966258,-0.01238743,-0.00018344,0.000245
 56,0.00084778,-0.00118108,-0.00066581,-0.00179286,-0.00002054,0.000053
 17,-0.00006615,0.00006292,0.00002495,0.00013593,0.00004251,0.00008509,
 -0.00038222,0.00038341,0.00003344,0.00048733,-0.00019669,-0.00005513,-
 0.00085561,-0.00067627,0.00231375,0.00264996,0.00157302,-0.06492079,-0
 .00816224,-0.00104735,0.12341247,0.,0.,0.,0.,0.,0.,0.,0.,0.,0.,0.,0.,0
 .,0.,0.,0.,0.,0.,0.,0.,0.,0.,0.,0.,0.,0.,0.,0.,0.,0.,0.,0.,0.,0.,0.,0.
 ,0.,0.,0.,0.,0.,0.,0.,0.,0.,0.,0.,0.,0.,0.,0.,0.,0.,0.,0.,0.,0.,0.,0.,
 0.,0.,0.,0.,0.,0.,0.,0.,0.,0.,0.,0.,0.,0.,0.,0.,0.,0.,0.,0.,0.,0.,0.,0
 .,0.,-0.00005099,-0.00004654,-0.00002265,-0.00001088,-0.00017281,0.000
 02922,0.00040955,-0.00015582,-0.00085176,0.00027736,0.00206584,-0.0028
 8091,-0.00034953,-0.00005350,-0.00098705,0.00001640,0.00001328,-0.0000
 0831,0.00000862,0.00008528,0.00003778,0.00035883,0.00019886,0.00024721
 ,-0.00698751,0.00245272,-0.00451501,0.00657794,0.00273590,-0.00592370,
 -0.00022650,0.00009724,0.00008657,-0.00004247,0.00002125,0.00002510,-0
 .00002286,-0.00008468,-0.00009920,-0.00007787,-0.00009808,0.00008843,-
 0.00006755,-0.00030382,-0.00028641,-0.00010643,-0.00001311,0.00023575,
 0.00006128,-0.00097406,-0.00148179,0.00501187,0.00620513,-0.00361757,-
 0.01861724,-0.01803542,-0.01962273,-0.00375443,0.00679862,-0.00349757,
 0.01612551,-0.01715470,-0.01817165,0.00018237,0.00006640,0.00024126,-0
 .00105361,-0.00055806,-0.00283512,0.00000576,0.00006287,-0.00007302,0.
 00010932,0.00004409,0.00011128,0.00012177,0.00020734,-0.00015341,0.000
 68849,0.00007090,0.00030582,0.00011386,0.00010138,-0.00020471,0.001671
 64,0.00286093,0.00302452,0.00057070,-0.02310257,-0.00543303,0.00222738
 ,0.03203045,0.06850248,0.,0.,0.,0.,0.,0.,0.,0.,0.,0.,0.,0.,0.,0.,0.,0.
 ,0.,0.,0.,0.,0.,0.,0.,0.,0.,0.,0.,0.,0.,0.,0.,0.,0.,0.,0.,0.,0.,0.,0.,
 0.,0.,0.,0.,0.,0.,0.,0.,0.,0.,0.,0.,0.,0.,0.,0.,0.,0.,0.,0.,0.,0.,0.,0
 .,0.,0.,0.,0.,0.,0.,0.,0.,0.,0.,0.,0.,0.,0.,0.,0.,0.,0.,0.,0.,0.,-0.00
 004006,-0.00001482,-0.00004391,-0.00001780,-0.00002259,-0.00007642,0.0
 0007907,-0.00018895,-0.00018627,-0.00185695,0.00225299,-0.00071960,0.0
 0356334,0.00021098,0.00034990,0.00001028,0.00000273,0.00001425,0.00004
 192,0.00003224,0.00005381,0.00000130,-0.00000204,0.00015092,0.00007922
 ,0.00039121,0.00013993,0.00143341,-0.00649821,-0.00465750,0.00003139,0
 .00727118,0.00562542,-0.00003526,0.00003423,0.00000443,-0.00004592,-0.
 00004513,-0.00002068,-0.00002551,0.00000609,0.00001859,-0.00009282,-0.
 00007585,-0.00000600,-0.00003440,-0.00000481,0.00014635,-0.00000392,-0
 .00011646,-0.00007022,-0.00066435,-0.00063507,0.00048587,0.00005186,-0
 .00005264,0.00000487,-0.06781584,0.02797655,-0.01770346,0.00285038,-0.
 00818582,0.00293532,-0.07041997,-0.02667423,0.01749751,0.00149746,0.00
 730170,-0.00390750,-0.00001961,0.00000077,0.00000198,0.00003508,0.0000
 1617,-0.00002076,-0.00002737,0.00004147,-0.00005593,0.00004274,0.00006
 012,-0.00005943,0.00001695,0.00018337,-0.00032480,0.00000883,0.0000144
 2,0.00002701,-0.00502880,0.00159933,-0.00013227,-0.00004203,-0.0006555
 1,-0.00061615,0.16095886,0.,0.,0.,0.,0.,0.,0.,0.,0.,0.,0.,0.,0.,0.,0.,
 0.,0.,0.,0.,0.,0.,0.,0.,0.,0.,0.,0.,0.,0.,0.,0.,0.,0.,0.,0.,0.,0.,0.,0
 .,0.,0.,0.,0.,0.,0.,0.,0.,0.,0.,0.,0.,0.,0.,0.,0.,0.,0.,0.,0.,0.,0.,0.
 ,0.,0.,0.,0.,0.,0.,0.,0.,0.,0.,0.,0.,0.,0.,0.,0.,0.,0.,0.,0.,0.,0.,0.0
 0002325,-0.00000123,0.00002617,0.00001182,-0.00003308,0.00004679,-0.00
 006110,0.00002071,0.00011462,0.00148963,-0.00329401,0.00012402,-0.0003
 8442,-0.00139630,-0.00090907,-0.00000886,-0.00000187,-0.00001076,-0.00
 001434,-0.00001069,-0.00003352,-0.00000898,0.00003608,-0.00009137,-0.0
 0014237,0.00003614,-0.00006490,-0.00565324,0.00411971,-0.00325666,0.00
 539376,0.00504877,-0.00190919,0.00001601,-0.00002918,0.00001183,0.0000
 3763,0.00002533,-0.00000580,-0.00000225,-0.00005369,0.00007457,0.00003
 399,0.00001610,-0.00004435,-0.00014497,-0.00020854,0.00023205,-0.00002
 407,-0.00003042,-0.00015911,-0.00085297,-0.00056776,0.00152775,-0.0000
 6263,0.00005422,-0.00074158,0.02022044,-0.02933678,0.01204765,-0.00488
 977,-0.00232903,-0.00125546,-0.02107933,-0.02803244,0.01406785,0.00494
 484,-0.00234269,-0.00153046,0.00000821,0.00002530,-0.00003742,-0.00001
 442,-0.00001763,0.00005197,-0.00002301,0.00007638,-0.00015320,0.000058
 21,-0.00000984,0.00009799,-0.00036777,0.00018117,-0.00039984,0.0000020
 9,0.00016825,0.00032617,0.00002595,0.00041487,-0.00235169,-0.00061868,
 0.00210345,0.00178832,-0.00137344,0.12798389,0.,0.,0.,0.,0.,0.,0.,0.,0
 .,0.,0.,0.,0.,0.,0.,0.,0.,0.,0.,0.,0.,0.,0.,0.,0.,0.,0.,0.,0.,0.,0.,0.
 ,0.,0.,0.,0.,0.,0.,0.,0.,0.,0.,0.,0.,0.,0.,0.,0.,0.,0.,0.,0.,0.,0.,0.,
 0.,0.,0.,0.,0.,0.,0.,0.,0.,0.,0.,0.,0.,0.,0.,0.,0.,0.,0.,0.,0.,0.,0.,0
 .,0.,0.,0.,0.,0.,-0.00005129,-0.00000729,-0.00003241,-0.00007279,0.000
 02144,0.00000171,0.00020304,0.00000755,-0.00010900,0.00022091,0.000201
 35,-0.00100248,-0.00025961,-0.00165900,-0.00253280,0.00001605,0.000002
 77,0.00000725,0.00002158,0.00003150,0.00001712,0.00006627,-0.00005658,
 0.00007981,0.00027165,-0.00009186,0.00010751,-0.00646155,-0.00283805,-
 0.00524420,0.00832090,-0.00319682,-0.00549225,-0.00003404,0.00005018,-
 0.00001736,-0.00006327,-0.00004325,-0.00000508,-0.00001124,0.00007803,
 -0.00010416,-0.00008916,-0.00004997,0.00004765,0.00016027,0.00038695,-
 0.00033160,-0.00004875,-0.00007261,0.00010960,0.00069420,0.00052808,-0
 .00245743,-0.00015519,0.00010193,0.00022245,-0.01518517,0.01697848,-0.
 01896754,0.00361974,-0.00590137,-0.00406974,0.02148310,0.01851422,-0.0
 2352992,-0.00437595,-0.00612153,-0.00379443,-0.00001423,-0.00003142,0.
 00005106,0.00002790,0.00002262,-0.00006537,0.00003061,-0.00006893,0.00
 022366,-0.00003788,0.00003245,-0.00017404,0.00056448,-0.00041777,0.000
 66213,0.00008449,-0.00010197,-0.00012319,0.00226322,-0.00141428,0.0046
 5396,0.00072978,-0.00186788,-0.00022725,-0.00589460,-0.03279432,0.0712
 3240,0.,0.,0.,0.,0.,0.,0.,0.,0.,0.,0.,0.,0.,0.,0.,0.,0.,0.,0.,0.,0.,0.
 ,0.,0.,0.,0.,0.,0.,0.,0.,0.,0.,0.,0.,0.,0.,0.,0.,0.,0.,0.,0.,0.,0.,0.,
 0.,0.,0.,0.,0.,0.,0.,0.,0.,0.,0.,0.,0.,0.,0.,0.,0.,0.,0.,0.,0.,0.,0.,0
 .,0.,0.,0.,0.,0.,0.,0.,0.,0.,0.,0.,0.,0.,0.,0.,0.00003206,0.00001151,0
 .00002669,0.00003827,0.00002263,0.00002045,0.00007576,0.00003621,-0.00
 005351,0.00052536,0.00053228,-0.00059695,-0.00024030,-0.00025030,0.000
 00645,-0.00000837,-0.00000195,-0.00000718,-0.00003015,-0.00002402,-0.0
 0001581,-0.00003098,-0.00002679,-0.00000743,0.00009795,-0.00001415,-0.
 00005691,-0.00327169,0.00016321,-0.00165470,-0.00331103,-0.00011214,0.
 00181838,0.00002630,-0.00002693,0.00000181,0.00003542,0.00003161,0.000
 02070,0.00001977,-0.00000852,0.00000878,0.00006675,0.00006061,0.000023
 47,0.00002049,-0.00002786,0.00000625,0.00004121,0.00013653,0.00016381,
 -0.00016598,-0.00047161,0.00002550,-0.00039350,0.00058286,0.00076781,0
 .00500787,0.00324148,-0.00079914,-0.04701076,-0.00145962,-0.03620623,0
 .00370669,-0.00412310,0.00125579,-0.04735930,0.00118335,0.03392829,0.0
 0001220,0.00000454,-0.00000785,-0.00003087,-0.00001483,-0.00000088,-0.
 00001081,-0.00001559,-0.00000323,-0.00005654,-0.00002296,0.00000683,-0
 .00003107,-0.00002971,0.00003614,0.00000057,-0.00018232,-0.00043153,0.
 00028255,-0.00047278,0.00005837,-0.00502129,0.00022098,-0.00216167,-0.
 01856514,0.00227210,-0.00069404,0.12107537,0.,0.,0.,0.,0.,0.,0.,0.,0.,
 0.,0.,0.,0.,0.,0.,0.,0.,0.,0.,0.,0.,0.,0.,0.,0.,0.,0.,0.,0.,0.,0.,0.,0
 .,0.,0.,0.,0.,0.,0.,0.,0.,0.,0.,0.,0.,0.,0.,0.,0.,0.,0.,0.,0.,0.,0.,0.
 ,0.,0.,0.,0.,0.,0.,0.,0.,0.,0.,0.,0.,0.,0.,0.,0.,0.,0.,0.,0.,0.,0.,0.,
 0.,0.,0.,0.,0.,-0.00002961,-0.00000977,-0.00002997,-0.00003359,-0.0000
 1322,-0.00004369,0.00009665,0.00007619,-0.00013808,-0.00094567,0.00129
 762,0.00025771,0.00025334,0.00008094,-0.00075403,0.00000871,0.00000239
 ,0.00000945,0.00002452,0.00002202,0.00003178,0.00004605,0.00000174,0.0
 0009704,-0.00008635,-0.00010814,0.00025270,0.00243389,-0.00188731,0.00
 099512,-0.00170457,-0.00247425,0.00033371,-0.00002277,0.00002540,-0.00
 000357,-0.00003751,-0.00003552,-0.00001323,-0.00001292,0.00001889,-0.0
 0002419,-0.00005430,-0.00005751,-0.00000546,0.00004123,0.00010793,-0.0
 0004522,-0.00000106,-0.00012579,-0.00006785,0.00033996,0.00056884,-0.0
 0050378,0.00055393,-0.00019809,-0.00075185,0.00200439,0.00339295,0.000
 44938,-0.00161605,-0.01272656,-0.01349654,-0.00152853,0.00244820,-0.00
 146082,0.00190886,-0.01276783,-0.01412340,-0.00001343,-0.00001126,0.00
 001665,0.00002680,0.00002003,-0.00002081,0.00000244,-0.00000964,0.0000
 4504,0.00002229,0.00003722,-0.00004414,0.00009705,-0.00004244,0.000109
 29,0.00013565,0.00010023,0.00018027,-0.00047195,-0.00042801,0.00005036
 ,0.00176674,0.00021329,0.00149958,0.00033388,-0.06992182,0.02253103,-0
 .00164955,0.08938405,0.,0.,0.,0.,0.,0.,0.,0.,0.,0.,0.,0.,0.,0.,0.,0.,0
 .,0.,0.,0.,0.,0.,0.,0.,0.,0.,0.,0.,0.,0.,0.,0.,0.,0.,0.,0.,0.,0.,0.,0.
 ,0.,0.,0.,0.,0.,0.,0.,0.,0.,0.,0.,0.,0.,0.,0.,0.,0.,0.,0.,0.,0.,0.,0.,
 0.,0.,0.,0.,0.,0.,0.,0.,0.,0.,0.,0.,0.,0.,0.,0.,0.,0.,0.,0.,0.,-0.0000
 0177,-0.00001045,0.00001323,0.00000214,-0.00003887,0.00006557,-0.00003
 093,-0.00000344,0.00016539,0.00076222,0.00006795,-0.00121284,0.0001543
 8,-0.00140398,0.00155225,-0.00000088,-0.00000081,-0.00001202,-0.000003
 62,0.00000706,-0.00004909,-0.00001333,0.00005520,-0.00013538,0.0000213
 5,-0.00004240,-0.00069248,-0.00646959,0.00201791,-0.00339343,0.0050296
 1,0.00216880,-0.00198036,-0.00000210,-0.00000512,0.00000138,0.00001066
 ,0.00000159,-0.00002694,-0.00000299,-0.00003934,0.00002512,-0.00000428
 ,-0.00002771,-0.00007360,-0.00011072,-0.00014830,0.00005343,-0.0000157
 2,-0.00008365,-0.00034832,-0.00014171,-0.00019147,0.00047727,0.0005789
 5,-0.00016910,-0.00191116,-0.00263931,-0.00417398,0.00182305,-0.024946
 02,-0.00921428,-0.02944996,0.00141723,-0.00462551,0.00184606,0.0277397
 2,-0.00733847,-0.03118065,0.00001045,0.00001729,-0.00001950,0.00000746
 ,-0.00000494,0.00005920,0.00003167,0.00006815,-0.00005378,0.00012712,0
 .00000178,0.00013215,-0.00010915,0.00005510,-0.00011772,0.00016548,0.0
 0047399,0.00071006,-0.00002847,-0.00005505,-0.00117597,0.00039985,0.00
 253396,0.00460294,0.00132586,0.00917628,-0.00408490,-0.00074619,0.0102
 4082,0.06156834,0.,0.,0.,0.,0.,0.,0.,0.,0.,0.,0.,0.,0.,0.,0.,0.,0.,0.,
 0.,0.,0.,0.,0.,0.,0.,0.,0.,0.,0.,0.,0.,0.,0.,0.,0.,0.,0.,0.,0.,0.,0.,0
 .,0.,0.,0.,0.,0.,0.,0.,0.,0.,0.,0.,0.,0.,0.,0.,0.,0.,0.,0.,0.,0.,0.,0.
 ,0.,0.,0.,0.,0.,0.,0.,0.,0.,0.,0.,0.,0.,0.,0.,0.,0.,0.,0.,0.00006228,0
 .00008651,0.00012745,-0.00001702,-0.00007647,0.00005121,-0.00136918,0.
 00061089,0.00001527,0.00105134,0.00014810,0.00051598,0.00005056,0.0000
 3219,-0.00008470,-0.00006120,0.00002470,0.00009495,0.00083270,-0.00058
 558,0.00054012,0.00068323,0.00001360,-0.00041686,-0.00280890,-0.000543
 30,0.00070165,0.00008426,0.00003290,0.00004486,-0.00000231,-0.00000973
 ,0.00004451,0.00003614,-0.00009174,0.00013042,0.00010866,0.00007807,0.
 00002079,-0.00048661,0.00079054,-0.00013458,-0.00118524,0.00079335,-0.
 00028486,0.00055763,0.00123599,-0.00257076,-0.00278094,0.00192455,-0.0
 0309569,0.00127677,0.00277148,0.00138063,0.00034490,-0.00213189,0.0012
 0440,0.00008846,0.00006274,-0.00008356,0.00002441,-0.00003404,0.000080
 72,0.00003025,0.00006931,0.00001117,0.00007455,-0.00003934,-0.00001816
 ,-0.00007444,-0.00011986,-0.00001071,-0.00007324,0.00012060,0.00036707
 ,0.00012429,-0.00097574,-0.00336613,0.00396676,0.00214227,0.00312092,-
 0.00832744,-0.00677331,0.00247016,-0.00976996,0.01012499,0.02197854,0.
 00016169,-0.00007576,-0.00051344,0.00048059,-0.00003619,0.00037823,0.0
 0007240,-0.00005414,0.00001816,-0.00002566,0.00003602,-0.00003450,0.01
 666293,0.,0.,0.,0.,0.,0.,0.,0.,0.,0.,0.,0.,0.,0.,0.,0.,0.,0.,0.,0.,0.,
 0.,0.,0.,0.,0.,0.,0.,0.,0.,0.,0.,0.,0.,0.,0.,0.,0.,0.,0.,0.,0.,0.,0.,0
 .,0.,0.,0.,0.,0.,0.,0.,0.,0.,0.,0.,0.,0.,0.,0.,0.,0.,0.,0.,0.,0.,0.,0.
 ,0.,0.,0.,0.,0.,0.,0.,0.,0.,0.,0.,0.,0.,0.,0.,0.,0.00018440,0.00006703
 ,-0.00004434,-0.00002030,0.00027855,-0.00013486,-0.00031700,0.00051862
 ,0.00016091,0.00024994,-0.00021433,0.00018143,0.00001837,0.00000435,-0
 .00001978,-0.00008280,-0.00002966,0.00003111,-0.00013750,-0.00050508,-
 0.00035983,0.00027480,-0.00069206,-0.00055785,-0.00046450,-0.00023519,
 0.00025576,-0.00000634,-0.00000944,0.00000394,-0.00000172,0.,0.0000060
 4,0.00000050,-0.00002070,-0.00005097,0.00003445,0.00016052,-0.00002209
 ,-0.00000485,-0.00074455,0.00011894,0.00065447,0.00018143,-0.00040685,
 -0.00215318,-0.00101208,0.00190886,-0.00003744,0.00098687,-0.00456472,
 0.00020401,-0.00028527,0.00042161,-0.00063213,-0.00169979,-0.00078023,
 0.00005212,-0.00001588,0.00002080,0.00001544,-0.00001850,0.00000647,0.
 00000758,0.00001346,0.00000703,0.00001213,-0.00000939,-0.00000777,-0.0
 0010360,-0.00028692,0.00012946,-0.00006866,0.00010824,0.00040631,0.001
 18842,0.00234141,0.00026508,0.00380222,-0.00557156,0.00524408,-0.00161
 880,-0.00835870,0.01042278,0.00638590,-0.00377137,-0.01790285,0.000055
 62,-0.00009845,-0.00040559,0.00012816,0.00009479,0.00013676,0.00001601
 ,0.00001499,0.00000321,-0.00000066,0.00000193,0.00000315,-0.00907522,0
 .01877309,0.,0.,0.,0.,0.,0.,0.,0.,0.,0.,0.,0.,0.,0.,0.,0.,0.,0.,0.,0.,
 0.,0.,0.,0.,0.,0.,0.,0.,0.,0.,0.,0.,0.,0.,0.,0.,0.,0.,0.,0.,0.,0.,0.,0
 .,0.,0.,0.,0.,0.,0.,0.,0.,0.,0.,0.,0.,0.,0.,0.,0.,0.,0.,0.,0.,0.,0.,0.
 ,0.,0.,0.,0.,0.,0.,0.,0.,0.,0.,0.,0.,0.,0.,0.,0.,0.,-0.00041534,-0.000
 13303,0.00026090,0.00094488,-0.00007959,-0.00017938,-0.00047711,0.0004
 7189,0.00027658,0.00001023,-0.00008389,-0.00013455,0.00006895,0.000017
 82,0.00009964,0.00004919,0.00003482,-0.00013979,0.00087146,0.00025110,
 0.00042111,-0.00147324,-0.00089523,-0.00046096,0.00053379,-0.00001822,
 0.00011284,-0.00006081,0.00003941,-0.00017088,0.00000433,-0.00000739,-
 0.00005268,-0.00003701,-0.00001068,0.00009061,-0.00013061,-0.00014296,
 -0.00000334,-0.00002475,0.00071931,0.00000950,-0.00191682,-0.00042079,
 0.00047594,0.00249261,-0.00145869,-0.00343143,-0.00015497,0.00180418,-
 0.00871318,0.00228642,-0.00360806,-0.00016579,0.00053998,0.00170435,-0
 .00007700,0.00004894,0.00003885,-0.00008007,0.00010028,0.00011711,-0.0
 0000168,0.00001473,0.00000402,-0.00001265,0.00002602,0.00002227,-0.000
 02457,0.00009225,0.00018907,-0.00018579,-0.00000617,-0.00008498,-0.000
 13517,-0.00268050,-0.00000499,-0.00319894,0.00288739,0.00170221,-0.003
 96393,0.00127600,0.01427280,-0.01816539,0.01910322,-0.01973325,-0.0509
 3649,0.00005550,0.00019931,0.00014597,0.00009851,-0.00007262,0.0001346
 2,-0.00001403,0.00000539,0.00000177,0.00002345,-0.00003749,0.00007230,
 -0.02245271,0.00550564,0.08829555\\0.,0.,0.,0.,0.,0.,0.,0.,0.,0.,0.,0.
 ,0.,0.,0.,0.,0.,0.,0.,0.,0.,0.,0.,0.,0.,0.,0.,0.,0.,0.,0.,0.,0.,0.,0.,
 0.,0.,0.,0.,0.,0.,0.,0.,0.,0.,0.,0.,0.,0.,0.,0.,0.,0.,0.,0.,0.,0.,0.,0
 .,0.,0.,0.,0.,0.,0.,0.,0.,0.,0.,0.,0.,0.,0.,0.,0.,0.,0.,0.,0.,0.,0.,0.
 ,0.,0.,0.00026787,0.00014897,-0.00029552,-0.00019713,0.00000337,-0.000
 08477,-0.00003000,-0.00012249,-0.00012567,-0.00003512,0.00000558,-0.00
 012538,0.00000181,-0.00000471,-0.00012007,0.00001493,-0.00000749,0.000
 15075,-0.00066516,-0.00020367,-0.00027111,-0.00006260,0.00015263,0.000
 15989,0.00017431,0.00001675,0.00005927,-0.00000533,-0.00000826,0.00010
 949,0.00000931,-0.00002542,0.00016183,-0.00005710,-0.00006860,-0.00015
 227,0.00001756,0.00006317,-0.00015324,-0.00004097,-0.00066459,-0.00005
 775,0.00055461,0.00092313,-0.00059637,-0.00016179,0.00000117,0.0003886
 5,0.00037588,-0.00021821,0.00067030,-0.00010784,-0.00004755,-0.0001950
 9,-0.00017530,0.00005815,-0.00013622,-0.00001237,0.00002501,-0.0001603
 6,0.00001902,0.00003266,-0.00014148,-0.00001912,-0.00001284,-0.0001281
 3,0.00002090,0.00003698,-0.00014572,-0.00001666,-0.00018316,0.00005533
 ,0.00001217,0.00019632,0.00011121,-0.00018393,-0.00065585,-0.00025276,
 -0.00293699,-0.00025549,-0.00164110,0.00048954,-0.00019502,0.00054252,
 0.00022525,0.00023849,0.00041466,-0.00001519,-0.00010361,-0.00006730,-
 0.00007268,0.00005818,-0.00004376,0.00002973,-0.00009257,-0.00005766,-
 0.00001099,0.00008459,-0.00007109,0.00270753,0.00080413,-0.00002798\\\
 @


 ERWIN WITH HIS PSI CAN DO
 CALCULATIONS QUITE A FEW.
 BUT ONE THING HAS NOT BEEN SEEN
 JUST WHAT DOES PSI REALLY MEAN.
 -- WALTER HUCKEL, TRANS. BY FELIX BLOCH
 Job cpu time:       1 days  7 hours 19 minutes 55.2 seconds.
 Elapsed time:       0 days  2 hours 37 minutes 15.2 seconds.
 File lengths (MBytes):  RWF=   8985 Int=      0 D2E=      0 Chk=     52 Scr=      1
 Normal termination of Gaussian 16 at Sun Feb 20 22:56:05 2022.
