 Entering Gaussian System, Link 0=g16
 Input=f10g1_TS_1_m1.gjf
 Output=f10g1_TS_1_m1.log
 Initial command:
 /shared/ucl/apps/gaussian/g16-a03/pgi-2016.5/g16/l1.exe "/tmpdir/job/277966.undefined/ucanssc/gaussian.b0415335/Gau-101905.inp" -scrdir="/tmpdir/job/277966.undefined/ucanssc/gaussian.b0415335/"
 Entering Link 1 = /shared/ucl/apps/gaussian/g16-a03/pgi-2016.5/g16/l1.exe PID=    101906.
  
 Copyright (c) 1988,1990,1992,1993,1995,1998,2003,2009,2016,
            Gaussian, Inc.  All Rights Reserved.
  
 This is part of the Gaussian(R) 16 program.  It is based on
 the Gaussian(R) 09 system (copyright 2009, Gaussian, Inc.),
 the Gaussian(R) 03 system (copyright 2003, Gaussian, Inc.),
 the Gaussian(R) 98 system (copyright 1998, Gaussian, Inc.),
 the Gaussian(R) 94 system (copyright 1995, Gaussian, Inc.),
 the Gaussian 92(TM) system (copyright 1992, Gaussian, Inc.),
 the Gaussian 90(TM) system (copyright 1990, Gaussian, Inc.),
 the Gaussian 88(TM) system (copyright 1988, Gaussian, Inc.),
 the Gaussian 86(TM) system (copyright 1986, Carnegie Mellon
 University), and the Gaussian 82(TM) system (copyright 1983,
 Carnegie Mellon University). Gaussian is a federally registered
 trademark of Gaussian, Inc.
  
 This software contains proprietary and confidential information,
 including trade secrets, belonging to Gaussian, Inc.
  
 This software is provided under written license and may be
 used, copied, transmitted, or stored only in accord with that
 written license.
  
 The following legend is applicable only to US Government
 contracts under FAR:
  
                    RESTRICTED RIGHTS LEGEND
  
 Use, reproduction and disclosure by the US Government is
 subject to restrictions as set forth in subparagraphs (a)
 and (c) of the Commercial Computer Software - Restricted
 Rights clause in FAR 52.227-19.
  
 Gaussian, Inc.
 340 Quinnipiac St., Bldg. 40, Wallingford CT 06492
  
  
 ---------------------------------------------------------------
 Warning -- This program may not be used in any manner that
 competes with the business of Gaussian, Inc. or will provide
 assistance to any competitor of Gaussian, Inc.  The licensee
 of this program is prohibited from giving any competitor of
 Gaussian, Inc. access to this program.  By using this program,
 the user acknowledges that Gaussian, Inc. is engaged in the
 business of creating and licensing software in the field of
 computational chemistry and represents and warrants to the
 licensee that it is not a competitor of Gaussian, Inc. and that
 it will not use this program in any manner prohibited above.
 ---------------------------------------------------------------
  

 Cite this work as:
 Gaussian 16, Revision A.03,
 M. J. Frisch, G. W. Trucks, H. B. Schlegel, G. E. Scuseria, 
 M. A. Robb, J. R. Cheeseman, G. Scalmani, V. Barone, 
 G. A. Petersson, H. Nakatsuji, X. Li, M. Caricato, A. V. Marenich, 
 J. Bloino, B. G. Janesko, R. Gomperts, B. Mennucci, H. P. Hratchian, 
 J. V. Ortiz, A. F. Izmaylov, J. L. Sonnenberg, D. Williams-Young, 
 F. Ding, F. Lipparini, F. Egidi, J. Goings, B. Peng, A. Petrone, 
 T. Henderson, D. Ranasinghe, V. G. Zakrzewski, J. Gao, N. Rega, 
 G. Zheng, W. Liang, M. Hada, M. Ehara, K. Toyota, R. Fukuda, 
 J. Hasegawa, M. Ishida, T. Nakajima, Y. Honda, O. Kitao, H. Nakai, 
 T. Vreven, K. Throssell, J. A. Montgomery, Jr., J. E. Peralta, 
 F. Ogliaro, M. J. Bearpark, J. J. Heyd, E. N. Brothers, K. N. Kudin, 
 V. N. Staroverov, T. A. Keith, R. Kobayashi, J. Normand, 
 K. Raghavachari, A. P. Rendell, J. C. Burant, S. S. Iyengar, 
 J. Tomasi, M. Cossi, J. M. Millam, M. Klene, C. Adamo, R. Cammi, 
 J. W. Ochterski, R. L. Martin, K. Morokuma, O. Farkas, 
 J. B. Foresman, and D. J. Fox, Gaussian, Inc., Wallingford CT, 2016.
 
 ******************************************
 Gaussian 16:  ES64L-G16RevA.03 25-Dec-2016
                22-Feb-2022 
 ******************************************
 %chk=f10g1_TS_1_m1.chk
 %NProcShared=12
 Will use up to   12 processors via shared memory.
 %mem=2GB
 ----------------------------
 # freq b3lyp/gen pseudo=read
 ----------------------------
 1/10=4,30=1,38=1/1,3;
 2/12=2,17=6,18=5,40=1/2;
 3/5=7,11=2,16=1,17=8,25=1,30=1,71=2,74=-5,140=1/1,2,3;
 4//1;
 5/5=2,38=5,98=1/2;
 8/6=4,10=90,11=11/1;
 11/6=1,8=1,9=11,15=111,16=1/1,2,10;
 10/6=1/2;
 6/7=2,8=2,9=2,10=2,28=1/1;
 7/8=1,10=1,25=1/1,2,3,16;
 1/10=4,30=1/3;
 99//99;
 -------------
 f10g1_TS_1_m1
 -------------
 Symbolic Z-matrix:
 Charge =  0 Multiplicity = 1
 H                    -1   -7.67726   1.24918  -4.89984 
 H                    -1   -7.67783  -1.23627  -4.90003 
 H                    -1   -3.83842   1.24973  -4.89973 
 H                    -1   -3.839    -1.23568  -4.89973 
 H                    -1    0.00036   1.25063  -4.89944 
 H                    -1   -0.00023  -1.23479  -4.89973 
 H                    -1    3.83919   1.25114  -4.89941 
 H                    -1    3.83861  -1.23428  -4.89949 
 H                    -1    7.67804   1.25199  -4.89912 
 H                    -1    7.67746  -1.23336  -4.89937 
 H                    -1    10.81932   0.00958  -3.60883 
 H                    -1   -10.81925   0.00559  -3.60967 
 H                    -1   -9.59773  -3.0518   -2.02909 
 H                    -1   -5.75909  -3.05066  -2.0289 
 H                    -1   -1.92039  -3.04995  -2.02866 
 H                    -1    1.91872  -3.04957  -2.0284 
 H                    -1    5.75759  -3.04831  -2.02829 
 H                    -1    9.5964   -3.04818  -2.02813 
 H                    -1   -9.59644   3.06342  -2.02862 
 H                    -1   -5.7577    3.06387  -2.02848 
 H                    -1   -1.91864   3.06433  -2.02839 
 H                    -1    1.91998   3.0657   -2.02789 
 H                    -1    5.75921   3.06568  -2.02791 
 H                    -1    9.59792   3.0668   -2.0275 
 H                    -1   -10.80822   1.4226   -0.47998 
 H                    -1   -10.80879  -1.41147  -0.48003 
 H                    -1    10.80863   1.4268   -0.47909 
 H                    -1    10.80818  -1.40737  -0.47909 
 Si                   -7.66807   0.00281  -4.09145 
 Si                   -3.84535   0.00579  -4.13174 
 Si                    0.05389   0.00808  -4.11159 
 Si                    3.82386   0.00713  -4.09765 
 Si                    7.71144   0.00879  -4.12628 
 Si                   -9.59684   0.03466  -2.82179 
 Si                   -5.71441  -0.00631  -2.75639 
 Si                   -1.90829   0.02069  -2.93495 
 Si                    1.9244   -0.0014   -2.69892 
 Si                    5.78154  -0.01372  -2.89202 
 Si                    9.58831   0.01837  -2.79104 
 Si                   -9.58965   1.7492   -1.28181 
 Si                   -9.62564  -1.73121  -1.32159 
 Si                   -5.85262   1.79172  -1.24169 
 Si                   -5.64114  -1.79216  -1.15891 
 Si                   -1.9163    1.74047  -1.3917 
 Si                   -1.88915  -1.70357  -1.43456 
 Si                    1.87452   1.80922  -1.16959 
 Si                    2.00112  -1.80179  -1.15641 
 Si                    5.73444   1.73242  -1.39158 
 Si                    5.82685  -1.73539  -1.33746 
 Si                    9.55646   1.7628   -1.22674 
 Si                    9.61204  -1.74415  -1.30287 
 Si                   -7.72597   1.3347    0.1279 
 Si                   -7.65788  -0.90958  -0.3574 
 Si                   -3.83839   1.21439  -0.24746 
 Si                   -3.61001  -1.10094   0.04115 
 Si                   -0.14181   1.09877  -0.03618 
 Si                   -0.04013  -1.23279  -0.12688 
 Si                    3.88098   1.24628  -0.11788 
 Si                    3.99968  -1.11356  -0.02593 
 Si                    7.54001   0.99324  -0.07807 
 Si                    7.70909  -1.32777  -0.02666 
 Bi                    5.02142   0.3751    2.13983 
 Bi                   -1.51139  -0.58135   2.07244 
 

 GradGradGradGradGradGradGradGradGradGradGradGradGradGradGradGradGradGrad
 Berny optimization.
 Initialization pass.
 Trust Radius=3.00D-01 FncErr=1.00D-07 GrdErr=1.00D-07 EigMax=2.50D+02 EigMin=1.00D-04
 Number of steps in this run=      2 maximum allowed number of steps=      2.
 GradGradGradGradGradGradGradGradGradGradGradGradGradGradGradGradGradGrad

 Stoichiometry    Bi2H28Si33
 Framework group  C1[X(Bi2H28Si33)]
 Deg. of freedom   183
 Full point group                 C1      NOp   1
 Largest Abelian subgroup         C1      NOp   1
 Largest concise Abelian subgroup C1      NOp   1
                         Standard orientation:                         
 ---------------------------------------------------------------------
 Center     Atomic      Atomic             Coordinates (Angstroms)
 Number     Number       Type             X           Y           Z
 ---------------------------------------------------------------------
      1          1           0       -8.309835    3.803489    1.215504
      2          1           0       -8.326214    3.735058   -1.268948
      3          1           0       -4.475428    3.985631    1.186635
      4          1           0       -4.491809    3.917012   -1.297766
      5          1           0       -0.641076    4.167601    1.158124
      6          1           0       -0.657475    4.099267   -1.326295
      7          1           0        3.193318    4.349817    1.129216
      8          1           0        3.176940    4.281273   -1.355205
      9          1           0        7.027748    4.531787    1.100652
     10          1           0        7.011363    4.463423   -1.383701
     11          1           0       10.219000    3.358272   -0.130157
     12          1           0      -11.394609    2.331791    0.031671
     13          1           0      -10.118603    0.727207   -2.990758
     14          1           0       -6.284384    0.909279   -3.019036
     15          1           0       -2.450107    1.091287   -3.047739
     16          1           0        1.384572    1.273286   -3.076776
     17          1           0        5.219014    1.455443   -3.104934
     18          1           0        9.053393    1.637522   -3.134218
     19          1           0      -10.078408    0.895567    3.122009
     20          1           0       -6.244106    1.077675    3.093044
     21          1           0       -2.409470    1.259834    3.064078
     22          1           0        1.424740    1.441604    3.036046
     23          1           0        5.259521    1.623873    3.006606
     24          1           0        9.093817    1.805726    2.978314
     25          1           0      -11.225404   -0.753545    1.533356
     26          1           0      -11.244002   -0.831730   -1.299578
     27          1           0       10.366502    0.271862    1.371912
     28          1           0       10.348038    0.193622   -1.461113
     29         14           0       -8.270056    2.962358   -0.008398
     30         14           0       -4.453656    3.184140   -0.035809
     31         14           0       -0.557950    3.349189   -0.062852
     32         14           0        3.208316    3.514208   -0.092320
     33         14           0        7.090046    3.727391   -0.121236
     34         14           0      -10.135873    1.603939    0.072837
     35         14           0       -6.255073    1.721806    0.003914
     36         14           0       -2.461697    2.081521   -0.003129
     37         14           0        1.377670    2.027180   -0.048152
     38         14           0        5.221064    2.402752   -0.095288
     39         14           0        9.028444    2.483529   -0.089632
     40         14           0      -10.044391    0.113938    1.828625
     41         14           0      -10.104358    0.055896   -1.651195
     42         14           0       -6.309499    0.252455    1.843585
     43         14           0       -6.117101    0.080934   -1.738222
     44         14           0       -2.385211    0.587685    1.758090
     45         14           0       -2.382031    0.536717   -1.685937
     46         14           0        1.412246    0.547760    1.803825
     47         14           0        1.516372    0.440958   -1.806350
     48         14           0        5.256640    0.950532    1.691422
     49         14           0        5.329470    0.805178   -1.774238
     50         14           0        9.082288    0.968212    1.696984
     51         14           0        9.111876    0.950088   -1.811056
     52         14           0       -8.118310   -1.216608    1.438437
     53         14           0       -8.087694   -0.790747   -0.818695
     54         14           0       -4.253876   -0.660590    1.278155
     55         14           0       -4.026725   -1.001822   -1.030127
     56         14           0       -0.552241   -0.699266    1.140009
     57         14           0       -0.469822   -0.668221   -1.193868
     58         14           0        3.462937   -0.422650    1.254402
     59         14           0        3.570877   -0.573951   -1.102890
     60         14           0        7.118024   -0.295687    0.974504
     61         14           0        7.274603   -0.403043   -1.345463
     62         83           0        4.704134   -2.646854    0.436388
     63         83           0       -1.830415   -2.916084   -0.471449
 ---------------------------------------------------------------------
 Rotational constants (GHZ):           0.0664287           0.0118608           0.0107698
 General basis read from cards:  (5D, 7F)
 ======================================================================================================
                                       Pseudopotential Parameters
 ======================================================================================================
  Center     Atomic      Valence      Angular      Power
  Number     Number     Electrons     Momentum     of R      Exponent        Coefficient   SO-Coeffient
 ======================================================================================================
    1          1
                                   No pseudopotential on this center.
    2          1
                                   No pseudopotential on this center.
    3          1
                                   No pseudopotential on this center.
    4          1
                                   No pseudopotential on this center.
    5          1
                                   No pseudopotential on this center.
    6          1
                                   No pseudopotential on this center.
    7          1
                                   No pseudopotential on this center.
    8          1
                                   No pseudopotential on this center.
    9          1
                                   No pseudopotential on this center.
   10          1
                                   No pseudopotential on this center.
   11          1
                                   No pseudopotential on this center.
   12          1
                                   No pseudopotential on this center.
   13          1
                                   No pseudopotential on this center.
   14          1
                                   No pseudopotential on this center.
   15          1
                                   No pseudopotential on this center.
   16          1
                                   No pseudopotential on this center.
   17          1
                                   No pseudopotential on this center.
   18          1
                                   No pseudopotential on this center.
   19          1
                                   No pseudopotential on this center.
   20          1
                                   No pseudopotential on this center.
   21          1
                                   No pseudopotential on this center.
   22          1
                                   No pseudopotential on this center.
   23          1
                                   No pseudopotential on this center.
   24          1
                                   No pseudopotential on this center.
   25          1
                                   No pseudopotential on this center.
   26          1
                                   No pseudopotential on this center.
   27          1
                                   No pseudopotential on this center.
   28          1
                                   No pseudopotential on this center.
   29         14            4
                                      D and up 
                                                     1      505.3137693      -10.00000000    0.00000000
                                                     2      103.2221026      -84.92360870    0.00000000
                                                     2       23.4569248      -30.32994100    0.00000000
                                                     2        6.7505693      -12.10490460    0.00000000
                                                     2        2.1603140       -1.89454080    0.00000000
                                      S - D
                                                     0      689.4910719        3.00000000    0.00000000
                                                     1      114.1728510       60.52068330    0.00000000
                                                     2       35.7424336      201.30861370    0.00000000
                                                     2        9.4529586       65.93997450    0.00000000
                                                     2        2.2543590       19.03007890    0.00000000
                                      P - D
                                                     0       88.9379355        5.00000000    0.00000000
                                                     1       76.7773538        6.64138170    0.00000000
                                                     2       56.1480987      247.59724160    0.00000000
                                                     2       21.1874014      129.37153800    0.00000000
                                                     2        6.8277276       47.46171070    0.00000000
                                                     2        2.1001192       11.73765740    0.00000000
   30         14            4
                                      D and up 
                                                     1      505.3137693      -10.00000000    0.00000000
                                                     2      103.2221026      -84.92360870    0.00000000
                                                     2       23.4569248      -30.32994100    0.00000000
                                                     2        6.7505693      -12.10490460    0.00000000
                                                     2        2.1603140       -1.89454080    0.00000000
                                      S - D
                                                     0      689.4910719        3.00000000    0.00000000
                                                     1      114.1728510       60.52068330    0.00000000
                                                     2       35.7424336      201.30861370    0.00000000
                                                     2        9.4529586       65.93997450    0.00000000
                                                     2        2.2543590       19.03007890    0.00000000
                                      P - D
                                                     0       88.9379355        5.00000000    0.00000000
                                                     1       76.7773538        6.64138170    0.00000000
                                                     2       56.1480987      247.59724160    0.00000000
                                                     2       21.1874014      129.37153800    0.00000000
                                                     2        6.8277276       47.46171070    0.00000000
                                                     2        2.1001192       11.73765740    0.00000000
   31         14            4
                                      D and up 
                                                     1      505.3137693      -10.00000000    0.00000000
                                                     2      103.2221026      -84.92360870    0.00000000
                                                     2       23.4569248      -30.32994100    0.00000000
                                                     2        6.7505693      -12.10490460    0.00000000
                                                     2        2.1603140       -1.89454080    0.00000000
                                      S - D
                                                     0      689.4910719        3.00000000    0.00000000
                                                     1      114.1728510       60.52068330    0.00000000
                                                     2       35.7424336      201.30861370    0.00000000
                                                     2        9.4529586       65.93997450    0.00000000
                                                     2        2.2543590       19.03007890    0.00000000
                                      P - D
                                                     0       88.9379355        5.00000000    0.00000000
                                                     1       76.7773538        6.64138170    0.00000000
                                                     2       56.1480987      247.59724160    0.00000000
                                                     2       21.1874014      129.37153800    0.00000000
                                                     2        6.8277276       47.46171070    0.00000000
                                                     2        2.1001192       11.73765740    0.00000000
   32         14            4
                                      D and up 
                                                     1      505.3137693      -10.00000000    0.00000000
                                                     2      103.2221026      -84.92360870    0.00000000
                                                     2       23.4569248      -30.32994100    0.00000000
                                                     2        6.7505693      -12.10490460    0.00000000
                                                     2        2.1603140       -1.89454080    0.00000000
                                      S - D
                                                     0      689.4910719        3.00000000    0.00000000
                                                     1      114.1728510       60.52068330    0.00000000
                                                     2       35.7424336      201.30861370    0.00000000
                                                     2        9.4529586       65.93997450    0.00000000
                                                     2        2.2543590       19.03007890    0.00000000
                                      P - D
                                                     0       88.9379355        5.00000000    0.00000000
                                                     1       76.7773538        6.64138170    0.00000000
                                                     2       56.1480987      247.59724160    0.00000000
                                                     2       21.1874014      129.37153800    0.00000000
                                                     2        6.8277276       47.46171070    0.00000000
                                                     2        2.1001192       11.73765740    0.00000000
   33         14            4
                                      D and up 
                                                     1      505.3137693      -10.00000000    0.00000000
                                                     2      103.2221026      -84.92360870    0.00000000
                                                     2       23.4569248      -30.32994100    0.00000000
                                                     2        6.7505693      -12.10490460    0.00000000
                                                     2        2.1603140       -1.89454080    0.00000000
                                      S - D
                                                     0      689.4910719        3.00000000    0.00000000
                                                     1      114.1728510       60.52068330    0.00000000
                                                     2       35.7424336      201.30861370    0.00000000
                                                     2        9.4529586       65.93997450    0.00000000
                                                     2        2.2543590       19.03007890    0.00000000
                                      P - D
                                                     0       88.9379355        5.00000000    0.00000000
                                                     1       76.7773538        6.64138170    0.00000000
                                                     2       56.1480987      247.59724160    0.00000000
                                                     2       21.1874014      129.37153800    0.00000000
                                                     2        6.8277276       47.46171070    0.00000000
                                                     2        2.1001192       11.73765740    0.00000000
   34         14            4
                                      D and up 
                                                     1      505.3137693      -10.00000000    0.00000000
                                                     2      103.2221026      -84.92360870    0.00000000
                                                     2       23.4569248      -30.32994100    0.00000000
                                                     2        6.7505693      -12.10490460    0.00000000
                                                     2        2.1603140       -1.89454080    0.00000000
                                      S - D
                                                     0      689.4910719        3.00000000    0.00000000
                                                     1      114.1728510       60.52068330    0.00000000
                                                     2       35.7424336      201.30861370    0.00000000
                                                     2        9.4529586       65.93997450    0.00000000
                                                     2        2.2543590       19.03007890    0.00000000
                                      P - D
                                                     0       88.9379355        5.00000000    0.00000000
                                                     1       76.7773538        6.64138170    0.00000000
                                                     2       56.1480987      247.59724160    0.00000000
                                                     2       21.1874014      129.37153800    0.00000000
                                                     2        6.8277276       47.46171070    0.00000000
                                                     2        2.1001192       11.73765740    0.00000000
   35         14            4
                                      D and up 
                                                     1      505.3137693      -10.00000000    0.00000000
                                                     2      103.2221026      -84.92360870    0.00000000
                                                     2       23.4569248      -30.32994100    0.00000000
                                                     2        6.7505693      -12.10490460    0.00000000
                                                     2        2.1603140       -1.89454080    0.00000000
                                      S - D
                                                     0      689.4910719        3.00000000    0.00000000
                                                     1      114.1728510       60.52068330    0.00000000
                                                     2       35.7424336      201.30861370    0.00000000
                                                     2        9.4529586       65.93997450    0.00000000
                                                     2        2.2543590       19.03007890    0.00000000
                                      P - D
                                                     0       88.9379355        5.00000000    0.00000000
                                                     1       76.7773538        6.64138170    0.00000000
                                                     2       56.1480987      247.59724160    0.00000000
                                                     2       21.1874014      129.37153800    0.00000000
                                                     2        6.8277276       47.46171070    0.00000000
                                                     2        2.1001192       11.73765740    0.00000000
   36         14            4
                                      D and up 
                                                     1      505.3137693      -10.00000000    0.00000000
                                                     2      103.2221026      -84.92360870    0.00000000
                                                     2       23.4569248      -30.32994100    0.00000000
                                                     2        6.7505693      -12.10490460    0.00000000
                                                     2        2.1603140       -1.89454080    0.00000000
                                      S - D
                                                     0      689.4910719        3.00000000    0.00000000
                                                     1      114.1728510       60.52068330    0.00000000
                                                     2       35.7424336      201.30861370    0.00000000
                                                     2        9.4529586       65.93997450    0.00000000
                                                     2        2.2543590       19.03007890    0.00000000
                                      P - D
                                                     0       88.9379355        5.00000000    0.00000000
                                                     1       76.7773538        6.64138170    0.00000000
                                                     2       56.1480987      247.59724160    0.00000000
                                                     2       21.1874014      129.37153800    0.00000000
                                                     2        6.8277276       47.46171070    0.00000000
                                                     2        2.1001192       11.73765740    0.00000000
   37         14            4
                                      D and up 
                                                     1      505.3137693      -10.00000000    0.00000000
                                                     2      103.2221026      -84.92360870    0.00000000
                                                     2       23.4569248      -30.32994100    0.00000000
                                                     2        6.7505693      -12.10490460    0.00000000
                                                     2        2.1603140       -1.89454080    0.00000000
                                      S - D
                                                     0      689.4910719        3.00000000    0.00000000
                                                     1      114.1728510       60.52068330    0.00000000
                                                     2       35.7424336      201.30861370    0.00000000
                                                     2        9.4529586       65.93997450    0.00000000
                                                     2        2.2543590       19.03007890    0.00000000
                                      P - D
                                                     0       88.9379355        5.00000000    0.00000000
                                                     1       76.7773538        6.64138170    0.00000000
                                                     2       56.1480987      247.59724160    0.00000000
                                                     2       21.1874014      129.37153800    0.00000000
                                                     2        6.8277276       47.46171070    0.00000000
                                                     2        2.1001192       11.73765740    0.00000000
   38         14            4
                                      D and up 
                                                     1      505.3137693      -10.00000000    0.00000000
                                                     2      103.2221026      -84.92360870    0.00000000
                                                     2       23.4569248      -30.32994100    0.00000000
                                                     2        6.7505693      -12.10490460    0.00000000
                                                     2        2.1603140       -1.89454080    0.00000000
                                      S - D
                                                     0      689.4910719        3.00000000    0.00000000
                                                     1      114.1728510       60.52068330    0.00000000
                                                     2       35.7424336      201.30861370    0.00000000
                                                     2        9.4529586       65.93997450    0.00000000
                                                     2        2.2543590       19.03007890    0.00000000
                                      P - D
                                                     0       88.9379355        5.00000000    0.00000000
                                                     1       76.7773538        6.64138170    0.00000000
                                                     2       56.1480987      247.59724160    0.00000000
                                                     2       21.1874014      129.37153800    0.00000000
                                                     2        6.8277276       47.46171070    0.00000000
                                                     2        2.1001192       11.73765740    0.00000000
   39         14            4
                                      D and up 
                                                     1      505.3137693      -10.00000000    0.00000000
                                                     2      103.2221026      -84.92360870    0.00000000
                                                     2       23.4569248      -30.32994100    0.00000000
                                                     2        6.7505693      -12.10490460    0.00000000
                                                     2        2.1603140       -1.89454080    0.00000000
                                      S - D
                                                     0      689.4910719        3.00000000    0.00000000
                                                     1      114.1728510       60.52068330    0.00000000
                                                     2       35.7424336      201.30861370    0.00000000
                                                     2        9.4529586       65.93997450    0.00000000
                                                     2        2.2543590       19.03007890    0.00000000
                                      P - D
                                                     0       88.9379355        5.00000000    0.00000000
                                                     1       76.7773538        6.64138170    0.00000000
                                                     2       56.1480987      247.59724160    0.00000000
                                                     2       21.1874014      129.37153800    0.00000000
                                                     2        6.8277276       47.46171070    0.00000000
                                                     2        2.1001192       11.73765740    0.00000000
   40         14
                                   No pseudopotential on this center.
   41         14
                                   No pseudopotential on this center.
   42         14
                                   No pseudopotential on this center.
   43         14
                                   No pseudopotential on this center.
   44         14
                                   No pseudopotential on this center.
   45         14
                                   No pseudopotential on this center.
   46         14
                                   No pseudopotential on this center.
   47         14
                                   No pseudopotential on this center.
   48         14
                                   No pseudopotential on this center.
   49         14
                                   No pseudopotential on this center.
   50         14
                                   No pseudopotential on this center.
   51         14
                                   No pseudopotential on this center.
   52         14
                                   No pseudopotential on this center.
   53         14
                                   No pseudopotential on this center.
   54         14
                                   No pseudopotential on this center.
   55         14
                                   No pseudopotential on this center.
   56         14
                                   No pseudopotential on this center.
   57         14
                                   No pseudopotential on this center.
   58         14
                                   No pseudopotential on this center.
   59         14
                                   No pseudopotential on this center.
   60         14
                                   No pseudopotential on this center.
   61         14
                                   No pseudopotential on this center.
   62         83            5
                                      G and up 
                                                     0      223.3091971       -0.18335200    0.00000000
                                                     1       86.4699216      -53.33894920    0.00000000
                                                     2       26.8492203     -201.91178410    0.00000000
                                                     2        9.3823622      -76.31152950    0.00000000
                                                     2        2.7614708      -24.25784680    0.00000000
                                                     2        0.9423923       -4.03197000    0.00000000
                                      S - G
                                                     0      155.9783914        2.79165100    0.00000000
                                                     1       54.4591139       71.85538170    0.00000000
                                                     2       20.1794558      252.43274440    0.00000000
                                                     2        6.1273104       89.60451090    0.00000000
                                                     2        1.1805983       61.17441360    0.00000000
                                                     2        0.9932464      -33.04719060    0.00000000
                                      P - G
                                                     0       74.5091386        4.84629140    0.00000000
                                                     1       28.0487647       65.68833960    0.00000000
                                                     2       12.0168508      166.26196730    0.00000000
                                                     2        3.6914327       54.13933290    0.00000000
                                                     2        0.9080824       28.62048800    0.00000000
                                                     2        0.7394617      -12.34522040    0.00000000
                                      D - G
                                                     0       68.0856679        3.21838320    0.00000000
                                                     1       23.7250355       54.89526810    0.00000000
                                                     2        9.2437053      116.55407080    0.00000000
                                                     2        1.8452292       69.07606620    0.00000000
                                                     2        1.2209859      -72.64108700    0.00000000
                                                     2        0.8740861       38.94000550    0.00000000
                                      F - G
                                                     0      134.3538983        3.98640750    0.00000000
                                                     1       51.5812797       63.02620780    0.00000000
                                                     2       54.9307284       92.52599590    0.00000000
                                                     2       17.0475346      240.99736720    0.00000000
                                                     2        3.7702824       62.18445770    0.00000000
                                                     2        0.7670500       -1.72511340    0.00000000
   63         83            5
                                      G and up 
                                                     0      223.3091971       -0.18335200    0.00000000
                                                     1       86.4699216      -53.33894920    0.00000000
                                                     2       26.8492203     -201.91178410    0.00000000
                                                     2        9.3823622      -76.31152950    0.00000000
                                                     2        2.7614708      -24.25784680    0.00000000
                                                     2        0.9423923       -4.03197000    0.00000000
                                      S - G
                                                     0      155.9783914        2.79165100    0.00000000
                                                     1       54.4591139       71.85538170    0.00000000
                                                     2       20.1794558      252.43274440    0.00000000
                                                     2        6.1273104       89.60451090    0.00000000
                                                     2        1.1805983       61.17441360    0.00000000
                                                     2        0.9932464      -33.04719060    0.00000000
                                      P - G
                                                     0       74.5091386        4.84629140    0.00000000
                                                     1       28.0487647       65.68833960    0.00000000
                                                     2       12.0168508      166.26196730    0.00000000
                                                     2        3.6914327       54.13933290    0.00000000
                                                     2        0.9080824       28.62048800    0.00000000
                                                     2        0.7394617      -12.34522040    0.00000000
                                      D - G
                                                     0       68.0856679        3.21838320    0.00000000
                                                     1       23.7250355       54.89526810    0.00000000
                                                     2        9.2437053      116.55407080    0.00000000
                                                     2        1.8452292       69.07606620    0.00000000
                                                     2        1.2209859      -72.64108700    0.00000000
                                                     2        0.8740861       38.94000550    0.00000000
                                      F - G
                                                     0      134.3538983        3.98640750    0.00000000
                                                     1       51.5812797       63.02620780    0.00000000
                                                     2       54.9307284       92.52599590    0.00000000
                                                     2       17.0475346      240.99736720    0.00000000
                                                     2        3.7702824       62.18445770    0.00000000
                                                     2        0.7670500       -1.72511340    0.00000000
 ======================================================================================================
 There are   812 symmetry adapted cartesian basis functions of A   symmetry.
 There are   788 symmetry adapted basis functions of A   symmetry.
   788 basis functions,  1338 primitive gaussians,   812 cartesian basis functions
   195 alpha electrons      195 beta electrons
       nuclear repulsion energy      6773.3645204835 Hartrees.
 NAtoms=   63 NActive=   63 NUniq=   63 SFac= 1.00D+00 NAtFMM=   60 NAOKFM=T Big=T
 Integral buffers will be    131072 words long.
 Raffenetti 2 integral format.
 Two-electron integral symmetry is turned on.
 One-electron integrals computed using PRISM.
   1 Symmetry operations used in ECPInt.
 ECPInt:  NShTT=   74691 NPrTT=  253065 LenC2=   50008 LenP2D=  107657.
 LDataN:  DoStor=T MaxTD1= 6 Len=  172
 NBasis=   788 RedAO= T EigKep=  2.37D-05  NBF=   788
 NBsUse=   788 1.00D-06 EigRej= -1.00D+00 NBFU=   788
 Defaulting to unpruned grid for atomic number  83.
 ExpMin= 2.04D-02 ExpMax= 6.94D+04 ExpMxC= 2.33D+03 IAcc=3 IRadAn=         5 AccDes= 0.00D+00
 Harris functional with IExCor=  402 and IRadAn=       5 diagonalized for initial guess.
 HarFok:  IExCor=  402 AccDes= 0.00D+00 IRadAn=         5 IDoV= 1 UseB2=F ITyADJ=14
 ICtDFT=  3500011 ScaDFX=  1.000000  1.000000  1.000000  1.000000
 Defaulting to unpruned grid for atomic number  83.
 FoFCou: FMM=F IPFlag=           0 FMFlag=      100000 FMFlg1=        2001
         NFxFlg=           0 DoJE=T BraDBF=F KetDBF=T FulRan=T
         wScrn=  0.000000 ICntrl=       500 IOpCl=  0 I1Cent=   200000004 NGrid=           0
         NMat0=    1 NMatS0=      1 NMatT0=    0 NMatD0=    1 NMtDS0=    0 NMtDT0=    0
 Petite list used in FoFCou.
 Requested convergence on RMS density matrix=1.00D-08 within 128 cycles.
 Requested convergence on MAX density matrix=1.00D-06.
 Requested convergence on             energy=1.00D-06.
 No special actions if energy rises.
 Defaulting to unpruned grid for atomic number  83.
 Defaulting to unpruned grid for atomic number  83.
 Defaulting to unpruned grid for atomic number  83.
 Defaulting to unpruned grid for atomic number  83.
 Defaulting to unpruned grid for atomic number  83.
 Defaulting to unpruned grid for atomic number  83.
 Defaulting to unpruned grid for atomic number  83.
 Defaulting to unpruned grid for atomic number  83.
 Defaulting to unpruned grid for atomic number  83.
 Defaulting to unpruned grid for atomic number  83.
 Defaulting to unpruned grid for atomic number  83.
 Defaulting to unpruned grid for atomic number  83.
 Rare condition: small coef for last iteration:  0.000D+00
 EnCoef did   100 forward-backward iterations
 EnCoef did   100 forward-backward iterations
 EnCoef did    13 forward-backward iterations
 EnCoef did     5 forward-backward iterations
 EnCoef did   100 forward-backward iterations
 Rare condition: small coef for last iteration:  0.000D+00
 EnCoef did   100 forward-backward iterations
 Rare condition: small coef for last iteration:  0.000D+00
 EnCoef did   100 forward-backward iterations
 EnCoef did    15 forward-backward iterations
 EnCoef did    13 forward-backward iterations
 Restarting incremental Fock formation.
 SCF Done:  E(RB3LYP) =  -6439.82285631     A.U. after   32 cycles
            NFock= 32  Conv=0.25D-08     -V/T= 2.0069
 DoSCS=F DFT=T ScalE2(SS,OS)=  1.000000  1.000000
 Range of M.O.s used for correlation:     1   788
 NBasis=   788 NAE=   195 NBE=   195 NFC=     0 NFV=     0
 NROrb=    788 NOA=   195 NOB=   195 NVA=   593 NVB=   593

 **** Warning!!: The largest alpha MO coefficient is  0.24486747D+02


 **** Warning!!: The smallest alpha delta epsilon is  0.11948995D-01

 PrsmSu:  requested number of processors reduced to:   3 ShMem   1 Linda.
   1 Symmetry operations used in ECPInt.
 ECPInt:  NShTT=   74691 NPrTT=  253065 LenC2=   50008 LenP2D=  107657.
 LDataN:  DoStor=T MaxTD1= 7 Len=  274
 Number of processors reduced to   2 by ecpmxn.
 Symmetrizing basis deriv contribution to polar:
 IMax=3 JMax=2 DiffMx= 0.00D+00
 G2DrvN: will do    16 centers at a time, making    4 passes.
 Calling FoFCou, ICntrl=  3107 FMM=T I1Cent=   0 AccDes= 0.00D+00.
 Defaulting to unpruned grid for atomic number  83.
 Defaulting to unpruned grid for atomic number  83.
 Defaulting to unpruned grid for atomic number  83.
 Defaulting to unpruned grid for atomic number  83.
 Defaulting to unpruned grid for atomic number  83.
 Defaulting to unpruned grid for atomic number  83.
 Defaulting to unpruned grid for atomic number  83.
 Defaulting to unpruned grid for atomic number  83.
 Defaulting to unpruned grid for atomic number  83.
 Defaulting to unpruned grid for atomic number  83.
 Defaulting to unpruned grid for atomic number  83.
 Defaulting to unpruned grid for atomic number  83.
 Calling FoFCou, ICntrl=  3107 FMM=T I1Cent=   0 AccDes= 0.00D+00.
 Calling FoFCou, ICntrl=  3107 FMM=T I1Cent=   0 AccDes= 0.00D+00.
 Calling FoFCou, ICntrl=  3107 FMM=T I1Cent=   0 AccDes= 0.00D+00.
 End of G2Drv F.D. properties file   721 does not exist.
 End of G2Drv F.D. properties file   722 does not exist.
 End of G2Drv F.D. properties file   788 does not exist.
          IDoAtm=00000000000000000000000000001111111111111111111111
          IDoAtm=1111111111111
          Differentiating once with respect to electric field.
                with respect to dipole field.
          Differentiating once with respect to nuclear coordinates.
 Defaulting to unpruned grid for atomic number  83.
 CalDSu exits because no D1Ps are significant.
 Defaulting to unpruned grid for atomic number  83.
 Defaulting to unpruned grid for atomic number  83.
 Defaulting to unpruned grid for atomic number  83.
 Defaulting to unpruned grid for atomic number  83.
 Defaulting to unpruned grid for atomic number  83.
 Defaulting to unpruned grid for atomic number  83.
 Defaulting to unpruned grid for atomic number  83.
 Defaulting to unpruned grid for atomic number  83.
 Defaulting to unpruned grid for atomic number  83.
 Defaulting to unpruned grid for atomic number  83.
 Defaulting to unpruned grid for atomic number  83.
 Defaulting to unpruned grid for atomic number  83.
          There are   108 degrees of freedom in the 1st order CPHF.  IDoFFX=6 NUNeed=     3.
    108 vectors produced by pass  0 Test12= 1.16D-13 1.00D-09 XBig12= 6.56D+05 8.05D+02.
 AX will form    24 AO Fock derivatives at one time.
    108 vectors produced by pass  1 Test12= 1.16D-13 1.00D-09 XBig12= 7.60D+05 1.05D+02.
    108 vectors produced by pass  2 Test12= 1.16D-13 1.00D-09 XBig12= 2.54D+04 2.17D+01.
    108 vectors produced by pass  3 Test12= 1.16D-13 1.00D-09 XBig12= 4.84D+02 2.43D+00.
    108 vectors produced by pass  4 Test12= 1.16D-13 1.00D-09 XBig12= 5.18D+00 1.98D-01.
    108 vectors produced by pass  5 Test12= 1.16D-13 1.00D-09 XBig12= 3.58D-02 1.32D-02.
    108 vectors produced by pass  6 Test12= 1.16D-13 1.00D-09 XBig12= 1.22D-04 8.61D-04.
     85 vectors produced by pass  7 Test12= 1.16D-13 1.00D-09 XBig12= 2.42D-07 2.87D-05.
     37 vectors produced by pass  8 Test12= 1.16D-13 1.00D-09 XBig12= 4.44D-10 1.47D-06.
     28 vectors produced by pass  9 Test12= 1.16D-13 1.00D-09 XBig12= 9.04D-13 6.21D-08.
      4 vectors produced by pass 10 Test12= 1.16D-13 1.00D-09 XBig12= 6.32D-15 3.40D-09.
      1 vectors produced by pass 11 Test12= 1.16D-13 1.00D-09 XBig12= 2.53D-15 2.34D-09.
      1 vectors produced by pass 12 Test12= 1.16D-13 1.00D-09 XBig12= 3.14D-16 1.33D-09.
 InvSVY:  IOpt=1 It=  1 EMax= 1.14D-13
 Solved reduced A of dimension   912 with   108 vectors.
 Isotropic polarizability for W=    0.000000     1771.15 Bohr**3.
 End of Minotr F.D. properties file   721 does not exist.
 End of Minotr F.D. properties file   722 does not exist.
 End of Minotr F.D. properties file   788 does not exist.

 **********************************************************************

            Population analysis using the SCF density.

 **********************************************************************

 Orbital symmetries:
       Occupied  (A) (A) (A) (A) (A) (A) (A) (A) (A) (A) (A) (A)
                 (A) (A) (A) (A) (A) (A) (A) (A) (A) (A) (A) (A)
                 (A) (A) (A) (A) (A) (A) (A) (A) (A) (A) (A) (A)
                 (A) (A) (A) (A) (A) (A) (A) (A) (A) (A) (A) (A)
                 (A) (A) (A) (A) (A) (A) (A) (A) (A) (A) (A) (A)
                 (A) (A) (A) (A) (A) (A) (A) (A) (A) (A) (A) (A)
                 (A) (A) (A) (A) (A) (A) (A) (A) (A) (A) (A) (A)
                 (A) (A) (A) (A) (A) (A) (A) (A) (A) (A) (A) (A)
                 (A) (A) (A) (A) (A) (A) (A) (A) (A) (A) (A) (A)
                 (A) (A) (A) (A) (A) (A) (A) (A) (A) (A) (A) (A)
                 (A) (A) (A) (A) (A) (A) (A) (A) (A) (A) (A) (A)
                 (A) (A) (A) (A) (A) (A) (A) (A) (A) (A) (A) (A)
                 (A) (A) (A) (A) (A) (A) (A) (A) (A) (A) (A) (A)
                 (A) (A) (A) (A) (A) (A) (A) (A) (A) (A) (A) (A)
                 (A) (A) (A) (A) (A) (A) (A) (A) (A) (A) (A) (A)
                 (A) (A) (A) (A) (A) (A) (A) (A) (A) (A) (A) (A)
                 (A) (A) (A)
       Virtual   (A) (A) (A) (A) (A) (A) (A) (A) (A) (A) (A) (A)
                 (A) (A) (A) (A) (A) (A) (A) (A) (A) (A) (A) (A)
                 (A) (A) (A) (A) (A) (A) (A) (A) (A) (A) (A) (A)
                 (A) (A) (A) (A) (A) (A) (A) (A) (A) (A) (A) (A)
                 (A) (A) (A) (A) (A) (A) (A) (A) (A) (A) (A) (A)
                 (A) (A) (A) (A) (A) (A) (A) (A) (A) (A) (A) (A)
                 (A) (A) (A) (A) (A) (A) (A) (A) (A) (A) (A) (A)
                 (A) (A) (A) (A) (A) (A) (A) (A) (A) (A) (A) (A)
                 (A) (A) (A) (A) (A) (A) (A) (A) (A) (A) (A) (A)
                 (A) (A) (A) (A) (A) (A) (A) (A) (A) (A) (A) (A)
                 (A) (A) (A) (A) (A) (A) (A) (A) (A) (A) (A) (A)
                 (A) (A) (A) (A) (A) (A) (A) (A) (A) (A) (A) (A)
                 (A) (A) (A) (A) (A) (A) (A) (A) (A) (A) (A) (A)
                 (A) (A) (A) (A) (A) (A) (A) (A) (A) (A) (A) (A)
                 (A) (A) (A) (A) (A) (A) (A) (A) (A) (A) (A) (A)
                 (A) (A) (A) (A) (A) (A) (A) (A) (A) (A) (A) (A)
                 (A) (A) (A) (A) (A) (A) (A) (A) (A) (A) (A) (A)
                 (A) (A) (A) (A) (A) (A) (A) (A) (A) (A) (A) (A)
                 (A) (A) (A) (A) (A) (A) (A) (A) (A) (A) (A) (A)
                 (A) (A) (A) (A) (A) (A) (A) (A) (A) (A) (A) (A)
                 (A) (A) (A) (A) (A) (A) (A) (A) (A) (A) (A) (A)
                 (A) (A) (A) (A) (A) (A) (A) (A) (A) (A) (A) (A)
                 (A) (A) (A) (A) (A) (A) (A) (A) (A) (A) (A) (A)
                 (A) (A) (A) (A) (A) (A) (A) (A) (A) (A) (A) (A)
                 (A) (A) (A) (A) (A) (A) (A) (A) (A) (A) (A) (A)
                 (A) (A) (A) (A) (A) (A) (A) (A) (A) (A) (A) (A)
                 (A) (A) (A) (A) (A) (A) (A) (A) (A) (A) (A) (A)
                 (A) (A) (A) (A) (A) (A) (A) (A) (A) (A) (A) (A)
                 (A) (A) (A) (A) (A) (A) (A) (A) (A) (A) (A) (A)
                 (A) (A) (A) (A) (A) (A) (A) (A) (A) (A) (A) (A)
                 (A) (A) (A) (A) (A) (A) (A) (A) (A) (A) (A) (A)
                 (A) (A) (A) (A) (A) (A) (A) (A) (A) (A) (A) (A)
                 (A) (A) (A) (A) (A) (A) (A) (A) (A) (A) (A) (A)
                 (A) (A) (A) (A) (A) (A) (A) (A) (A) (A) (A) (A)
                 (A) (A) (A) (A) (A) (A) (A) (A) (A) (A) (A) (A)
                 (A) (A) (A) (A) (A) (A) (A) (A) (A) (A) (A) (A)
                 (A) (A) (A) (A) (A) (A) (A) (A) (A) (A) (A) (A)
                 (A) (A) (A) (A) (A) (A) (A) (A) (A) (A) (A) (A)
                 (A) (A) (A) (A) (A) (A) (A) (A) (A) (A) (A) (A)
                 (A) (A) (A) (A) (A) (A) (A) (A) (A) (A) (A) (A)
                 (A) (A) (A) (A) (A) (A) (A) (A) (A) (A) (A) (A)
                 (A) (A) (A) (A) (A) (A) (A) (A) (A) (A) (A) (A)
                 (A) (A) (A) (A) (A) (A) (A) (A) (A) (A) (A) (A)
                 (A) (A) (A) (A) (A) (A) (A) (A) (A) (A) (A) (A)
                 (A) (A) (A) (A) (A) (A) (A) (A) (A) (A) (A) (A)
                 (A) (A) (A) (A) (A) (A) (A) (A) (A) (A) (A) (A)
                 (A) (A) (A) (A) (A) (A) (A) (A) (A) (A) (A) (A)
                 (A) (A) (A) (A) (A) (A) (A) (A) (A) (A) (A) (A)
                 (A) (A) (A) (A) (A) (A) (A) (A) (A) (A) (A) (A)
                 (A) (A) (A) (A) (A)
 The electronic state is 1-A.
 Alpha  occ. eigenvalues --  -66.13194 -66.13151 -66.11714 -66.11660 -66.11558
 Alpha  occ. eigenvalues --  -66.11538 -66.11269 -66.11082 -66.10787 -66.10645
 Alpha  occ. eigenvalues --  -66.10563 -66.10472 -66.09618 -66.09585 -66.09370
 Alpha  occ. eigenvalues --  -66.09370 -66.09224 -66.08684 -66.08681 -66.08661
 Alpha  occ. eigenvalues --  -66.08573 -66.07655  -5.30449  -5.30295  -5.29176
 Alpha  occ. eigenvalues --   -5.28824  -5.28724  -5.28720  -5.28620  -5.28145
 Alpha  occ. eigenvalues --   -5.28120  -5.27969  -5.27920  -5.27670  -5.27175
 Alpha  occ. eigenvalues --   -5.27035  -5.26969  -5.26606  -5.26479  -5.26221
 Alpha  occ. eigenvalues --   -5.26206  -5.26119  -5.26042  -5.24998  -3.66577
 Alpha  occ. eigenvalues --   -3.66141  -3.66136  -3.66082  -3.66007  -3.65973
 Alpha  occ. eigenvalues --   -3.65011  -3.64974  -3.64888  -3.64658  -3.64624
 Alpha  occ. eigenvalues --   -3.64580  -3.64576  -3.64556  -3.64541  -3.64517
 Alpha  occ. eigenvalues --   -3.64480  -3.64445  -3.64437  -3.64409  -3.64335
 Alpha  occ. eigenvalues --   -3.64148  -3.64110  -3.63862  -3.63801  -3.63791
 Alpha  occ. eigenvalues --   -3.63787  -3.63772  -3.63771  -3.63747  -3.63720
 Alpha  occ. eigenvalues --   -3.63703  -3.63646  -3.63549  -3.63441  -3.63368
 Alpha  occ. eigenvalues --   -3.62992  -3.62952  -3.62898  -3.62881  -3.62802
 Alpha  occ. eigenvalues --   -3.62774  -3.62763  -3.62724  -3.62702  -3.62446
 Alpha  occ. eigenvalues --   -3.62402  -3.62324  -3.62302  -3.62245  -3.62196
 Alpha  occ. eigenvalues --   -3.62047  -3.62037  -3.61995  -3.61988  -3.61958
 Alpha  occ. eigenvalues --   -3.61949  -3.61932  -3.61878  -3.61852  -3.61843
 Alpha  occ. eigenvalues --   -3.61823  -3.61794  -3.60828  -3.60750  -3.60719
 Alpha  occ. eigenvalues --   -0.64945  -0.63684  -0.63156  -0.60827  -0.60496
 Alpha  occ. eigenvalues --   -0.60065  -0.58547  -0.57581  -0.57153  -0.56548
 Alpha  occ. eigenvalues --   -0.55804  -0.55442  -0.55255  -0.54790  -0.54434
 Alpha  occ. eigenvalues --   -0.53571  -0.53368  -0.52556  -0.52280  -0.50923
 Alpha  occ. eigenvalues --   -0.50377  -0.48911  -0.47273  -0.47021  -0.45754
 Alpha  occ. eigenvalues --   -0.45627  -0.44447  -0.43582  -0.43257  -0.42894
 Alpha  occ. eigenvalues --   -0.42096  -0.41686  -0.40901  -0.40383  -0.39735
 Alpha  occ. eigenvalues --   -0.39320  -0.38623  -0.38237  -0.38068  -0.37432
 Alpha  occ. eigenvalues --   -0.37378  -0.37319  -0.37153  -0.36564  -0.36556
 Alpha  occ. eigenvalues --   -0.36443  -0.35635  -0.35007  -0.34982  -0.34684
 Alpha  occ. eigenvalues --   -0.33116  -0.32815  -0.32564  -0.31667  -0.31425
 Alpha  occ. eigenvalues --   -0.30306  -0.30128  -0.29828  -0.29548  -0.29442
 Alpha  occ. eigenvalues --   -0.29311  -0.29205  -0.28885  -0.28575  -0.28418
 Alpha  occ. eigenvalues --   -0.28190  -0.27921  -0.27734  -0.27667  -0.27397
 Alpha  occ. eigenvalues --   -0.27142  -0.26699  -0.26404  -0.26249  -0.25194
 Alpha  occ. eigenvalues --   -0.23944  -0.23800  -0.22978  -0.22519  -0.22272
 Alpha  occ. eigenvalues --   -0.21194  -0.21088  -0.20310  -0.19091  -0.16498
 Alpha virt. eigenvalues --   -0.15303  -0.13736  -0.12684  -0.12328  -0.09663
 Alpha virt. eigenvalues --   -0.08291  -0.07441  -0.06468  -0.06203  -0.05152
 Alpha virt. eigenvalues --   -0.04261  -0.03792  -0.03521  -0.03297  -0.03281
 Alpha virt. eigenvalues --   -0.02647  -0.02545  -0.02100  -0.02032  -0.01901
 Alpha virt. eigenvalues --   -0.01402  -0.01092  -0.00735  -0.00538  -0.00401
 Alpha virt. eigenvalues --   -0.00116   0.00125   0.00136   0.00432   0.00585
 Alpha virt. eigenvalues --    0.00697   0.00916   0.01012   0.01298   0.01513
 Alpha virt. eigenvalues --    0.01660   0.01801   0.01832   0.02083   0.02176
 Alpha virt. eigenvalues --    0.02457   0.02583   0.02809   0.03092   0.03121
 Alpha virt. eigenvalues --    0.03358   0.03409   0.03681   0.03823   0.03911
 Alpha virt. eigenvalues --    0.04152   0.04309   0.04414   0.04586   0.04631
 Alpha virt. eigenvalues --    0.04756   0.04858   0.04952   0.05126   0.05345
 Alpha virt. eigenvalues --    0.05526   0.05665   0.05768   0.05926   0.05977
 Alpha virt. eigenvalues --    0.06174   0.06236   0.06433   0.06629   0.06753
 Alpha virt. eigenvalues --    0.06812   0.06913   0.07051   0.07251   0.07488
 Alpha virt. eigenvalues --    0.07630   0.07666   0.07820   0.07852   0.08031
 Alpha virt. eigenvalues --    0.08519   0.08550   0.08874   0.09144   0.09264
 Alpha virt. eigenvalues --    0.09480   0.09720   0.09840   0.09981   0.10254
 Alpha virt. eigenvalues --    0.10424   0.10734   0.10762   0.10953   0.11309
 Alpha virt. eigenvalues --    0.11441   0.11548   0.11871   0.12105   0.12117
 Alpha virt. eigenvalues --    0.12391   0.12786   0.13118   0.13235   0.13400
 Alpha virt. eigenvalues --    0.13724   0.13929   0.14328   0.14563   0.14683
 Alpha virt. eigenvalues --    0.15062   0.15344   0.15740   0.16012   0.16216
 Alpha virt. eigenvalues --    0.16361   0.16954   0.17032   0.17235   0.17323
 Alpha virt. eigenvalues --    0.17561   0.17774   0.17870   0.17954   0.18092
 Alpha virt. eigenvalues --    0.18340   0.18600   0.18878   0.19476   0.19593
 Alpha virt. eigenvalues --    0.19909   0.20012   0.20239   0.20520   0.20767
 Alpha virt. eigenvalues --    0.20900   0.21183   0.21469   0.21999   0.22075
 Alpha virt. eigenvalues --    0.22176   0.22422   0.22655   0.22993   0.23505
 Alpha virt. eigenvalues --    0.23893   0.23980   0.24365   0.24454   0.24971
 Alpha virt. eigenvalues --    0.25313   0.25369   0.25520   0.25935   0.26094
 Alpha virt. eigenvalues --    0.26454   0.26870   0.27097   0.27483   0.27771
 Alpha virt. eigenvalues --    0.27901   0.28300   0.28461   0.28651   0.28828
 Alpha virt. eigenvalues --    0.29095   0.29417   0.29603   0.30083   0.30284
 Alpha virt. eigenvalues --    0.30609   0.30794   0.30839   0.31224   0.31514
 Alpha virt. eigenvalues --    0.31736   0.32047   0.32144   0.32628   0.32825
 Alpha virt. eigenvalues --    0.32913   0.33008   0.33135   0.33543   0.33728
 Alpha virt. eigenvalues --    0.33921   0.34152   0.34356   0.34418   0.34760
 Alpha virt. eigenvalues --    0.35080   0.35266   0.35556   0.35838   0.36128
 Alpha virt. eigenvalues --    0.36208   0.36681   0.36858   0.37074   0.37477
 Alpha virt. eigenvalues --    0.37658   0.37732   0.38207   0.38519   0.38544
 Alpha virt. eigenvalues --    0.39078   0.39330   0.39609   0.39724   0.40151
 Alpha virt. eigenvalues --    0.40475   0.40913   0.40985   0.41394   0.41619
 Alpha virt. eigenvalues --    0.41897   0.42496   0.42696   0.43296   0.43488
 Alpha virt. eigenvalues --    0.43884   0.44639   0.44912   0.44974   0.45501
 Alpha virt. eigenvalues --    0.45802   0.46102   0.47039   0.47360   0.47848
 Alpha virt. eigenvalues --    0.48262   0.48556   0.48812   0.49346   0.49408
 Alpha virt. eigenvalues --    0.49850   0.50295   0.50813   0.51129   0.51495
 Alpha virt. eigenvalues --    0.51764   0.51980   0.52283   0.52864   0.53022
 Alpha virt. eigenvalues --    0.53766   0.54228   0.54521   0.54880   0.55297
 Alpha virt. eigenvalues --    0.55522   0.56088   0.56479   0.56694   0.56746
 Alpha virt. eigenvalues --    0.57067   0.57688   0.58032   0.58149   0.58653
 Alpha virt. eigenvalues --    0.58872   0.59133   0.59449   0.59678   0.59743
 Alpha virt. eigenvalues --    0.60191   0.60488   0.60597   0.60680   0.61085
 Alpha virt. eigenvalues --    0.61255   0.61615   0.61717   0.62206   0.62370
 Alpha virt. eigenvalues --    0.62564   0.62863   0.63434   0.63598   0.63903
 Alpha virt. eigenvalues --    0.64100   0.64413   0.64422   0.64935   0.65141
 Alpha virt. eigenvalues --    0.65375   0.65570   0.66035   0.66104   0.66238
 Alpha virt. eigenvalues --    0.66818   0.66897   0.67264   0.67524   0.67978
 Alpha virt. eigenvalues --    0.68497   0.68786   0.69358   0.69720   0.69900
 Alpha virt. eigenvalues --    0.70062   0.70292   0.70427   0.70940   0.71134
 Alpha virt. eigenvalues --    0.71434   0.71510   0.71762   0.72158   0.72474
 Alpha virt. eigenvalues --    0.72655   0.72990   0.73435   0.73685   0.74061
 Alpha virt. eigenvalues --    0.74466   0.74476   0.74648   0.75093   0.75642
 Alpha virt. eigenvalues --    0.75773   0.76350   0.76615   0.77302   0.77343
 Alpha virt. eigenvalues --    0.77597   0.78365   0.78571   0.78746   0.79060
 Alpha virt. eigenvalues --    0.79280   0.79836   0.80020   0.80239   0.80431
 Alpha virt. eigenvalues --    0.80785   0.81435   0.82351   0.82602   0.82896
 Alpha virt. eigenvalues --    0.83006   0.83681   0.84055   0.84493   0.85123
 Alpha virt. eigenvalues --    0.85319   0.85538   0.86293   0.86767   0.87290
 Alpha virt. eigenvalues --    0.89505   0.90120   0.90288   0.91384   0.91690
 Alpha virt. eigenvalues --    0.91992   0.92194   0.92642   0.94572   0.94643
 Alpha virt. eigenvalues --    0.95090   0.95780   0.96210   0.96662   0.96950
 Alpha virt. eigenvalues --    0.98452   0.99197   0.99822   1.00166   1.00897
 Alpha virt. eigenvalues --    1.01540   1.01855   1.02363   1.02627   1.03033
 Alpha virt. eigenvalues --    1.03549   1.03657   1.04387   1.05083   1.05960
 Alpha virt. eigenvalues --    1.06710   1.08243   1.09128   1.09689   1.10548
 Alpha virt. eigenvalues --    1.11361   1.11712   1.12342   1.13543   1.13883
 Alpha virt. eigenvalues --    1.14402   1.14738   1.15546   1.16602   1.17449
 Alpha virt. eigenvalues --    1.18532   1.19030   1.20441   1.20700   1.21773
 Alpha virt. eigenvalues --    1.23263   1.23753   1.24235   1.24704   1.25096
 Alpha virt. eigenvalues --    1.26623   1.26847   1.27474   1.27805   1.28514
 Alpha virt. eigenvalues --    1.29065   1.29963   1.30247   1.31154   1.31538
 Alpha virt. eigenvalues --    1.32142   1.32828   1.33562   1.33755   1.33961
 Alpha virt. eigenvalues --    1.35124   1.35646   1.36331   1.36528   1.36784
 Alpha virt. eigenvalues --    1.37114   1.37158   1.37576   1.37760   1.38389
 Alpha virt. eigenvalues --    1.38791   1.38961   1.39360   1.39701   1.40150
 Alpha virt. eigenvalues --    1.40563   1.40775   1.41161   1.41590   1.41740
 Alpha virt. eigenvalues --    1.42425   1.42550   1.43236   1.43518   1.44049
 Alpha virt. eigenvalues --    1.44975   1.45106   1.45365   1.45941   1.46815
 Alpha virt. eigenvalues --    1.46901   1.47902   1.48568   1.49473   1.50120
 Alpha virt. eigenvalues --    1.50403   1.51196   1.52077   1.52622   1.52974
 Alpha virt. eigenvalues --    1.53308   1.53972   1.54197   1.56427   1.57640
 Alpha virt. eigenvalues --    1.58773   1.58943   1.62534   1.65150   1.66033
 Alpha virt. eigenvalues --    5.36847   5.39123   5.40153   5.42277   5.42935
 Alpha virt. eigenvalues --    5.44459   5.44688   5.46196   5.47249   5.49004
 Alpha virt. eigenvalues --    5.49314   5.49799   5.51590   5.52151   5.55308
 Alpha virt. eigenvalues --    5.57288   5.57786   5.59311   5.60310   5.60913
 Alpha virt. eigenvalues --    5.63846   5.65519  11.08341  11.18980  11.20632
 Alpha virt. eigenvalues --   11.22769  11.23638  11.24641  11.26711  11.27637
 Alpha virt. eigenvalues --   11.28119  11.28363  11.28878  11.29279  11.29800
 Alpha virt. eigenvalues --   11.29897  11.30849  11.31163  11.31587  11.32408
 Alpha virt. eigenvalues --   11.32704  11.33246  11.33771  11.34253  11.34666
 Alpha virt. eigenvalues --   11.34800  11.35331  11.35576  11.35806  11.36001
 Alpha virt. eigenvalues --   11.36039  11.36514  11.37239  11.37571  11.37832
 Alpha virt. eigenvalues --   11.38208  11.38620  11.39192  11.39308  11.39865
 Alpha virt. eigenvalues --   11.40486  11.40832  11.41173  11.42394  11.42636
 Alpha virt. eigenvalues --   11.43111  11.43891  11.44179  11.44626  11.45179
 Alpha virt. eigenvalues --   11.45803  11.45971  11.46385  11.46644  11.47255
 Alpha virt. eigenvalues --   11.47904  11.48698  11.49825  11.50531  11.50858
 Alpha virt. eigenvalues --   11.52266  11.53406  11.53774  11.56438  11.58218
 Alpha virt. eigenvalues --   11.59292  11.60587  11.61213  11.62691  11.64441
 Alpha virt. eigenvalues --   11.96926  12.05801  12.63626  13.01635  13.18972
 Alpha virt. eigenvalues --   14.29833  14.45246  14.84183  15.17748  15.36401
 Alpha virt. eigenvalues --   15.45703 140.81876 140.84772 140.85359 140.88254
 Alpha virt. eigenvalues --  140.88776 140.90600 140.91006 140.92772 140.93603
 Alpha virt. eigenvalues --  140.95730 140.96045 140.96351 140.98379 140.99544
 Alpha virt. eigenvalues --  141.02244 141.04593 141.05845 141.07919 141.08643
 Alpha virt. eigenvalues --  141.09695 141.12678 141.14606
          Condensed to atoms (all electrons):
 Mulliken charges:
               1
     1  H   -0.066103
     2  H   -0.067652
     3  H   -0.071238
     4  H   -0.074024
     5  H   -0.074100
     6  H   -0.074967
     7  H   -0.075385
     8  H   -0.074960
     9  H   -0.076555
    10  H   -0.075986
    11  H   -0.064919
    12  H   -0.063760
    13  H    0.017423
    14  H    0.024830
    15  H    0.029421
    16  H    0.019813
    17  H    0.025149
    18  H    0.003474
    19  H    0.005285
    20  H    0.027721
    21  H    0.033486
    22  H    0.020248
    23  H    0.026587
    24  H    0.003647
    25  H    0.006404
    26  H    0.026993
    27  H    0.009676
    28  H    0.007225
    29  Si   0.182578
    30  Si   0.233802
    31  Si   0.240686
    32  Si   0.234015
    33  Si   0.168583
    34  Si   0.105220
    35  Si  -0.171432
    36  Si  -0.085827
    37  Si  -0.173586
    38  Si  -0.086130
    39  Si   0.091554
    40  Si  -0.040527
    41  Si  -0.036209
    42  Si  -0.022017
    43  Si   0.009208
    44  Si  -0.012415
    45  Si   0.011240
    46  Si   0.026687
    47  Si   0.053870
    48  Si   0.003158
    49  Si  -0.037864
    50  Si  -0.034329
    51  Si  -0.043251
    52  Si  -0.122651
    53  Si   0.232792
    54  Si   0.014458
    55  Si  -0.064748
    56  Si   0.034330
    57  Si  -0.166375
    58  Si  -0.093131
    59  Si  -0.025744
    60  Si   0.104751
    61  Si  -0.081623
    62  Bi   0.041725
    63  Bi   0.081469
 Sum of Mulliken charges =  -0.00000
 Mulliken charges with hydrogens summed into heavy atoms:
               1
    29  Si   0.048823
    30  Si   0.088539
    31  Si   0.091619
    32  Si   0.083669
    33  Si   0.016042
    34  Si   0.041460
    35  Si  -0.171432
    36  Si  -0.085827
    37  Si  -0.173586
    38  Si  -0.086130
    39  Si   0.026635
    40  Si  -0.028838
    41  Si   0.008208
    42  Si   0.005704
    43  Si   0.034038
    44  Si   0.021072
    45  Si   0.040661
    46  Si   0.046935
    47  Si   0.073683
    48  Si   0.029745
    49  Si  -0.012716
    50  Si  -0.021005
    51  Si  -0.032552
    52  Si  -0.122651
    53  Si   0.232792
    54  Si   0.014458
    55  Si  -0.064748
    56  Si   0.034330
    57  Si  -0.166375
    58  Si  -0.093131
    59  Si  -0.025744
    60  Si   0.104751
    61  Si  -0.081623
    62  Bi   0.041725
    63  Bi   0.081469
 Electronic spatial extent (au):  <R**2>=          59084.3938
 Charge=             -0.0000 electrons
 Dipole moment (field-independent basis, Debye):
    X=             -5.4174    Y=             -1.0757    Z=             -0.6569  Tot=              5.5621
 Quadrupole moment (field-independent basis, Debye-Ang):
   XX=           -483.3282   YY=           -476.1197   ZZ=           -477.1177
   XY=             -6.1831   XZ=             20.5574   YZ=              2.5262
 Traceless Quadrupole moment (field-independent basis, Debye-Ang):
   XX=             -4.4730   YY=              2.7355   ZZ=              1.7375
   XY=             -6.1831   XZ=             20.5574   YZ=              2.5262
 Octapole moment (field-independent basis, Debye-Ang**2):
  XXX=            128.0465  YYY=           -893.1465  ZZZ=             -8.7237  XYY=            155.1691
  XXY=           -265.1614  XXZ=            -56.3718  XZZ=            131.0946  YZZ=           -288.8387
  YYZ=             -8.9929  XYZ=            -37.3757
 Hexadecapole moment (field-independent basis, Debye-Ang**3):
 XXXX=        -104812.3530 YYYY=         -10334.6683 ZZZZ=          -5692.5557 XXXY=          -1706.3330
 XXXZ=           1961.9112 YYYX=          -1358.7274 YYYZ=             57.4567 ZZZX=            565.8404
 ZZZY=             40.4861 XXYY=         -19237.6601 XXZZ=         -18169.0945 YYZZ=          -2708.4059
 XXYZ=            137.8779 YYXZ=            264.1755 ZZXY=           -423.9698
 N-N= 6.773364520483D+03 E-N=-2.885584467040D+04  KE= 6.395462263871D+03
  Exact polarizability:3565.720  64.104 954.327 -98.430  -4.937 793.406
 Approx polarizability:******** -46.3002664.910********  10.0142919.212
   1 Symmetry operations used in ECPInt.
 ECPInt:  NShTT=   74691 NPrTT=  253065 LenC2=   50008 LenP2D=  107657.
 LDataN:  DoStor=T MaxTD1= 8 Len=  415
 Calling FoFJK, ICntrl=    100127 FMM=F ISym2X=0 I1Cent= 0 IOpClX= 0 NMat=1 NMatS=1 NMatT=0.
 Defaulting to unpruned grid for atomic number  83.
 Defaulting to unpruned grid for atomic number  83.
 Defaulting to unpruned grid for atomic number  83.
 Defaulting to unpruned grid for atomic number  83.
 Defaulting to unpruned grid for atomic number  83.
 Defaulting to unpruned grid for atomic number  83.
 Defaulting to unpruned grid for atomic number  83.
 Defaulting to unpruned grid for atomic number  83.
 Defaulting to unpruned grid for atomic number  83.
 Defaulting to unpruned grid for atomic number  83.
 Defaulting to unpruned grid for atomic number  83.
 Defaulting to unpruned grid for atomic number  83.
   28 atoms frozen in the vibrational analysis.
 ******    1 imaginary frequencies (negative Signs) ****** 
 Diagonal vibrational polarizability:
     4373.3696121      45.0114756     107.7492217
 Harmonic frequencies (cm**-1), IR intensities (KM/Mole), Raman scattering
 activities (A**4/AMU), depolarization ratios for plane and unpolarized
 incident light, reduced masses (AMU), force constants (mDyne/A),
 and normal coordinates:
                      1                      2                      3
                      A                      A                      A
 Frequencies --    -64.5123                25.9174                35.9265
 Red. masses --     73.3519               181.0283               174.0068
 Frc consts  --      0.1799                 0.0716                 0.1323
 IR Inten    --      4.7116                 4.8300                 0.1583
  Atom  AN      X      Y      Z        X      Y      Z        X      Y      Z
    29  14     0.01  -0.01   0.00    -0.00   0.00  -0.00    -0.00   0.00  -0.00
    30  14     0.01  -0.00   0.00     0.01  -0.00  -0.00    -0.00   0.00   0.00
    31  14     0.01  -0.01   0.00     0.01  -0.01  -0.00    -0.01   0.00   0.00
    32  14     0.00   0.00  -0.01     0.03   0.01   0.00     0.01   0.00   0.00
    33  14     0.02   0.01  -0.00     0.01   0.00   0.00    -0.00  -0.00  -0.00
    34  14    -0.00  -0.00  -0.01     0.00  -0.00  -0.00    -0.00  -0.00  -0.00
    35  14     0.03  -0.03  -0.01    -0.00   0.01  -0.01    -0.00   0.00  -0.01
    36  14     0.00  -0.01   0.01     0.01  -0.03  -0.02    -0.01  -0.01   0.03
    37  14     0.02   0.01   0.00     0.04   0.03   0.02    -0.00   0.04   0.00
    38  14     0.02   0.05   0.02     0.02   0.00  -0.01     0.00  -0.02  -0.01
    39  14    -0.02  -0.04   0.08     0.00  -0.01  -0.00     0.00   0.00   0.03
    40  14    -0.00   0.00  -0.00    -0.00  -0.00   0.00    -0.00   0.00  -0.00
    41  14    -0.00  -0.00  -0.00     0.01  -0.00  -0.00     0.00  -0.00  -0.00
    42  14     0.04  -0.03   0.01    -0.04   0.04  -0.01    -0.00   0.01  -0.01
    43  14    -0.00  -0.00  -0.03     0.06  -0.03   0.01     0.04  -0.02  -0.01
    44  14     0.03  -0.00   0.01    -0.01  -0.02   0.01    -0.02  -0.06   0.01
    45  14    -0.02   0.01   0.00     0.05  -0.05  -0.02    -0.01   0.03   0.00
    46  14    -0.02   0.02   0.01     0.04   0.00  -0.01    -0.06   0.04  -0.01
    47  14    -0.04  -0.01   0.01     0.12   0.06   0.02     0.05   0.04   0.01
    48  14     0.09   0.08  -0.03     0.02   0.01  -0.01     0.04   0.02   0.00
    49  14    -0.00   0.08  -0.01     0.07   0.01  -0.00    -0.04  -0.05  -0.00
    50  14    -0.10  -0.15   0.03    -0.01  -0.01  -0.00    -0.02  -0.03   0.00
    51  14     0.03   0.04  -0.01    -0.01  -0.01  -0.00     0.02   0.03   0.02
    52  14     0.01   0.03  -0.04    -0.00  -0.01   0.01     0.00   0.01  -0.01
    53  14     0.00  -0.01  -0.04     0.02   0.01   0.01     0.02   0.00  -0.00
    54  14     0.05   0.01  -0.05    -0.06   0.03   0.07    -0.03  -0.03   0.00
    55  14    -0.00  -0.05  -0.08     0.11  -0.08   0.13     0.06  -0.06  -0.01
    56  14     0.02  -0.07   0.11     0.01   0.01  -0.03    -0.01  -0.06  -0.06
    57  14    -0.03   0.03   0.07     0.14   0.13  -0.03     0.04   0.12  -0.06
    58  14     0.01   0.15   0.00     0.03  -0.02   0.02    -0.05   0.14   0.05
    59  14     0.03   0.08   0.05     0.09  -0.01   0.02    -0.01  -0.11   0.08
    60  14    -0.23  -0.62   0.28    -0.01  -0.01  -0.05    -0.04  -0.17   0.13
    61  14    -0.03   0.26   0.13     0.03  -0.08  -0.07     0.01   0.14   0.12
    62  83     0.41   0.16   0.23     0.12   0.02   0.12    -0.34  -0.06   0.60
    63  83    -0.09  -0.01  -0.01     0.77   0.05   0.48     0.27  -0.03  -0.51
                      4                      5                      6
                      A                      A                      A
 Frequencies --     37.1803                64.9016                73.6916
 Red. masses --    160.3329                45.9035               112.8296
 Frc consts  --      0.1306                 0.1139                 0.3610
 IR Inten    --      9.4671               307.4293                 4.1179
  Atom  AN      X      Y      Z        X      Y      Z        X      Y      Z
    29  14    -0.00  -0.00   0.00    -0.01   0.01   0.00    -0.03   0.01   0.00
    30  14    -0.01  -0.00  -0.00     0.02   0.01  -0.00    -0.06   0.03   0.00
    31  14    -0.02   0.01  -0.00     0.09   0.01  -0.00    -0.01   0.05  -0.00
    32  14    -0.03  -0.01  -0.00     0.08  -0.01  -0.00     0.02   0.04  -0.00
    33  14    -0.02  -0.01  -0.00     0.02  -0.01  -0.00     0.05   0.03  -0.00
    34  14    -0.00  -0.00  -0.00    -0.00  -0.00   0.01    -0.01  -0.00   0.00
    35  14    -0.00  -0.01   0.01    -0.01   0.03  -0.00    -0.04   0.02   0.01
    36  14    -0.01   0.00  -0.02     0.05   0.07  -0.02    -0.04   0.14   0.03
    37  14    -0.04   0.00  -0.01     0.09  -0.03  -0.01    -0.01   0.12   0.00
[...]
 6,0.00367083,0.00086598,-0.00473683,-0.00027877,0.00047710,-0.00013232
 ,0.00001519,-0.00001983,0.00000951,0.00006025,-0.00000127,-0.00005415,
 0.00028045,-0.00025467,-0.00025713,0.00006157,-0.00038956,-0.00039588,
 -0.00017644,0.00000809,0.00005065,0.00061356,-0.00069495,-0.00130778,-
 0.00143403,0.00081878,-0.00186406,-0.01863469,-0.01309917,-0.02248085,
 0.00185343,0.00200665,-0.00116909,0.03671104,-0.01496236,-0.03507149,-
 0.00030921,-0.00003938,-0.00027159,0.00027316,-0.00122017,-0.00213402,
 0.00000761,-0.00008436,-0.00004005,0.00002540,0.00002325,0.00016867,0.
 00021209,0.00062520,0.00099142,0.00050891,-0.00000426,0.00054696,-0.00
 011232,0.00043384,0.00041768,0.00193339,0.00171741,0.00183578,0.000509
 00,-0.00163367,-0.00300409,-0.01157280,0.03198964,0.08891867,0.,0.,0.,
 0.,0.,0.,0.,0.,0.,0.,0.,0.,0.,0.,0.,0.,0.,0.,0.,0.,0.,0.,0.,0.,0.,0.,0
 .,0.,0.,0.,0.,0.,0.,0.,0.,0.,0.,0.,0.,0.,0.,0.,0.,0.,0.,0.,0.,0.,0.,0.
 ,0.,0.,0.,0.,0.,0.,0.,0.,0.,0.,0.,0.,0.,0.,0.,0.,0.,0.,0.,0.,0.,0.,0.,
 0.,0.,0.,0.,0.,0.,0.,0.,0.,0.,0.,-0.00037232,0.00046539,0.00010537,0.0
 0023276,0.00010362,-0.00015153,0.00092534,0.00030198,-0.00012570,-0.00
 047320,-0.00012304,-0.00006577,0.00167645,-0.00080106,-0.00024384,-0.0
 0000008,0.00002495,0.00004748,0.00074045,-0.00081774,0.00010633,-0.000
 83216,-0.00030178,-0.00001799,-0.00023626,0.00000424,0.00001004,-0.000
 35026,-0.00092524,-0.00295066,-0.00237137,0.00447118,0.00320630,-0.000
 10248,0.00016305,-0.00014148,-0.00008686,-0.00013105,0.00006613,-0.000
 89320,0.00127814,0.00094653,-0.00027032,-0.00038670,-0.00015437,0.0004
 5049,0.00039917,0.00058874,0.00087122,0.00034180,-0.00010142,0.0010105
 3,-0.00041256,0.00130335,0.00022294,0.00056002,0.00007466,-0.05523240,
 0.01706237,-0.03664480,0.00384113,-0.00989131,0.00069420,-0.04543585,-
 0.00923071,0.01422818,0.00123193,0.00295702,-0.00256908,-0.00006774,0.
 00020622,-0.00006077,0.00009861,-0.00040720,-0.00028447,0.00038747,-0.
 00091330,-0.00310145,-0.00030391,-0.00127005,0.00178380,0.00022281,0.0
 0054138,0.00023314,-0.00052977,-0.00010206,-0.00106637,-0.00699497,0.0
 0217221,-0.00549844,0.00087471,-0.00104827,-0.00171304,0.11462008,0.,0
 .,0.,0.,0.,0.,0.,0.,0.,0.,0.,0.,0.,0.,0.,0.,0.,0.,0.,0.,0.,0.,0.,0.,0.
 ,0.,0.,0.,0.,0.,0.,0.,0.,0.,0.,0.,0.,0.,0.,0.,0.,0.,0.,0.,0.,0.,0.,0.,
 0.,0.,0.,0.,0.,0.,0.,0.,0.,0.,0.,0.,0.,0.,0.,0.,0.,0.,0.,0.,0.,0.,0.,0
 .,0.,0.,0.,0.,0.,0.,0.,0.,0.,0.,0.,0.,0.00021361,-0.00017044,-0.000329
 22,0.00002692,-0.00012852,0.00002313,-0.00003799,-0.00010668,-0.000108
 85,0.00210526,-0.00006615,-0.00057040,-0.00000318,0.00007948,-0.000077
 15,0.00007429,0.00007782,-0.00013452,-0.00045961,0.00034138,-0.0005429
 9,0.00020783,0.00010973,-0.00045891,-0.00128547,-0.00021453,0.00002790
 ,-0.00363266,-0.00163241,-0.00269928,0.00428813,0.00048712,-0.00110646
 ,-0.00011560,-0.00005521,0.00008621,-0.00017367,-0.00006100,-0.0000968
 4,-0.00013499,-0.00071810,-0.00005728,0.00036443,0.00109248,0.00064916
 ,0.00027635,-0.00046831,-0.00002915,-0.00087760,0.00017248,0.00058440,
 0.00121095,-0.00027905,0.00104538,0.00232998,-0.00035990,0.00021914,0.
 00962945,-0.01742553,0.01763939,-0.00377172,0.00236048,-0.00012512,-0.
 00840127,-0.01982558,0.01104379,0.00243745,0.00386707,-0.00125105,0.00
 008997,-0.00007580,0.00018834,-0.00010344,0.00065572,0.00020214,-0.001
 24953,-0.00063387,0.00010430,0.00014037,0.00160099,-0.00175086,-0.0009
 8023,-0.00182490,-0.00130255,0.00032709,0.00092121,0.00185346,0.001754
 45,0.00050786,0.00226709,-0.00157604,0.00112169,0.00331836,-0.00569759
 ,0.11474179,0.,0.,0.,0.,0.,0.,0.,0.,0.,0.,0.,0.,0.,0.,0.,0.,0.,0.,0.,0
 .,0.,0.,0.,0.,0.,0.,0.,0.,0.,0.,0.,0.,0.,0.,0.,0.,0.,0.,0.,0.,0.,0.,0.
 ,0.,0.,0.,0.,0.,0.,0.,0.,0.,0.,0.,0.,0.,0.,0.,0.,0.,0.,0.,0.,0.,0.,0.,
 0.,0.,0.,0.,0.,0.,0.,0.,0.,0.,0.,0.,0.,0.,0.,0.,0.,0.,0.00036868,-0.00
 038013,-0.00034905,-0.00001638,-0.00017927,-0.00000490,-0.00019472,-0.
 00010320,-0.00051435,-0.00065064,0.00213994,-0.00088427,0.00023197,0.0
 0070871,-0.00043750,0.00009710,0.00007990,-0.00016328,-0.00095596,0.00
 054076,-0.00053367,0.00059790,0.00039549,-0.00049309,-0.00141197,-0.00
 075854,0.00024464,-0.00296788,-0.00587157,-0.00472090,0.00741753,-0.00
 301374,-0.00432660,-0.00001404,-0.00011891,0.00005296,-0.00015588,-0.0
 0002006,-0.00002903,0.00035768,-0.00133909,-0.00074422,0.00026285,0.00
 112629,0.00054568,0.00201217,-0.00044345,-0.00000836,-0.00064926,0.000
 30363,0.00064071,-0.00037158,0.00071794,-0.00104356,0.00231245,0.00014
 196,-0.00013626,-0.03837434,0.02026942,-0.02485935,-0.00268519,0.00227
 540,-0.00125723,0.01212555,0.01095832,-0.02024509,0.00197680,0.0043765
 1,-0.00184774,0.00012149,-0.00011326,0.00032948,-0.00011038,0.00064127
 ,0.00009890,-0.00198049,-0.00043079,0.00245538,-0.00019030,0.00205416,
 -0.00183385,-0.00058678,-0.00222496,-0.00185128,0.00016168,0.00078421,
 0.00188536,0.00507350,-0.00083211,0.00444758,-0.00070219,-0.00016511,0
 .00411824,0.03372071,-0.02948387,0.04764311,0.,0.,0.,0.,0.,0.,0.,0.,0.
 ,0.,0.,0.,0.,0.,0.,0.,0.,0.,0.,0.,0.,0.,0.,0.,0.,0.,0.,0.,0.,0.,0.,0.,
 0.,0.,0.,0.,0.,0.,0.,0.,0.,0.,0.,0.,0.,0.,0.,0.,0.,0.,0.,0.,0.,0.,0.,0
 .,0.,0.,0.,0.,0.,0.,0.,0.,0.,0.,0.,0.,0.,0.,0.,0.,0.,0.,0.,0.,0.,0.,0.
 ,0.,0.,0.,0.,0.,0.00018950,-0.00021594,0.00009946,-0.00015759,-0.00004
 061,0.00004766,-0.00039624,-0.00033496,0.00002813,-0.00021595,0.000494
 99,-0.00041600,0.00027730,0.00025693,-0.00022116,-0.00000938,-0.000047
 00,0.00004591,-0.00027991,0.00037245,0.00016007,0.00035043,-0.00000252
 ,0.00005295,0.00083073,0.00048306,0.00021583,-0.00221186,0.00091158,-0
 .00219688,-0.00334560,-0.00308123,0.00256464,0.00016555,-0.00010457,0.
 00005652,0.00012316,0.00012230,0.00008234,0.00074528,-0.00061769,-0.00
 074304,-0.00016714,-0.00036291,-0.00023352,0.00033114,0.00004123,0.000
 22224,0.00026177,-0.00017375,-0.00022943,-0.00153583,-0.00054464,-0.00
 051903,-0.00269748,0.00041295,0.00063567,0.00097668,0.00345763,0.00162
 169,-0.06175642,-0.00716737,-0.04263354,0.00387592,-0.00493943,-0.0007
 5631,-0.06612896,0.00785943,0.03883515,-0.00001317,-0.00010382,-0.0000
 2787,-0.00003092,-0.00007732,-0.00001209,0.00003426,0.00091217,0.00229
 055,0.00006066,0.00021193,0.00003293,0.00023412,0.00080056,-0.00030976
 ,0.00060553,-0.00053598,-0.00101933,-0.00080129,-0.00008314,-0.0015968
 3,-0.00547395,0.00002872,-0.00379862,-0.01607894,0.00746242,-0.0042801
 0,0.15689638,0.,0.,0.,0.,0.,0.,0.,0.,0.,0.,0.,0.,0.,0.,0.,0.,0.,0.,0.,
 0.,0.,0.,0.,0.,0.,0.,0.,0.,0.,0.,0.,0.,0.,0.,0.,0.,0.,0.,0.,0.,0.,0.,0
 .,0.,0.,0.,0.,0.,0.,0.,0.,0.,0.,0.,0.,0.,0.,0.,0.,0.,0.,0.,0.,0.,0.,0.
 ,0.,0.,0.,0.,0.,0.,0.,0.,0.,0.,0.,0.,0.,0.,0.,0.,0.,0.,-0.00043284,0.0
 0068804,-0.00012147,0.00029394,0.00008485,-0.00027449,0.00100319,0.000
 59528,-0.00022569,0.00013542,-0.00083763,0.00031359,0.00038215,-0.0004
 0969,0.00000427,0.00005826,0.00009744,0.00003343,0.00094540,-0.0010613
 2,-0.00016378,-0.00094870,-0.00059789,-0.00055508,-0.00072390,-0.00014
 287,-0.00009910,0.00147846,0.00087120,0.00130857,-0.00304340,0.0003746
 3,0.00159838,-0.00025982,0.00025894,-0.00020021,-0.00028112,-0.0002862
 5,0.00003567,-0.00165290,0.00161580,0.00141521,-0.00013349,0.00008476,
 0.00014049,0.00092740,0.00056220,0.00066367,0.00069736,0.00047013,0.00
 006628,0.00212745,0.00046614,0.00058917,0.00197972,-0.00032944,-0.0007
 4227,0.00381489,-0.00010834,-0.00124190,-0.00566204,-0.01383639,-0.014
 39549,-0.00219452,0.00216570,0.00045874,0.00644919,-0.01448354,-0.0137
 6633,-0.00001344,0.00027500,0.00009939,0.00011420,-0.00019735,-0.00031
 372,-0.00008734,-0.00193336,-0.00439008,-0.00038189,-0.00126592,0.0016
 7328,-0.00014695,-0.00073038,0.00069089,-0.00063697,0.00038181,-0.0004
 8173,0.00046199,0.00130034,-0.00118231,0.00194851,-0.00060844,0.000224
 94,-0.00052993,-0.07893409,0.00985099,-0.00773877,0.10355056,0.,0.,0.,
 0.,0.,0.,0.,0.,0.,0.,0.,0.,0.,0.,0.,0.,0.,0.,0.,0.,0.,0.,0.,0.,0.,0.,0
 .,0.,0.,0.,0.,0.,0.,0.,0.,0.,0.,0.,0.,0.,0.,0.,0.,0.,0.,0.,0.,0.,0.,0.
 ,0.,0.,0.,0.,0.,0.,0.,0.,0.,0.,0.,0.,0.,0.,0.,0.,0.,0.,0.,0.,0.,0.,0.,
 0.,0.,0.,0.,0.,0.,0.,0.,0.,0.,0.,0.00020742,-0.00051858,0.00043642,-0.
 00027784,0.00003440,0.00031768,-0.00033264,-0.00052228,0.00041372,-0.0
 0211662,-0.00105853,-0.00074398,-0.00055267,-0.00130533,0.00023677,-0.
 00012569,-0.00016434,0.00007340,-0.00055080,0.00064776,0.00059767,0.00
 046778,0.00055381,0.00097650,0.00172809,0.00053851,-0.00048962,-0.0032
 8419,0.00411201,-0.00320532,0.00492590,0.00423282,-0.00391075,0.000358
 19,-0.00022044,0.00012847,0.00045635,0.00033964,0.00002974,0.00196260,
 -0.00082071,-0.00130880,-0.00029145,-0.00097912,-0.00076216,-0.0020830
 8,-0.00029098,-0.00046511,0.00036827,-0.00085139,-0.00083221,-0.001839
 65,-0.00083310,-0.00030803,-0.00245105,-0.00101750,-0.00203327,0.00181
 017,-0.00198468,-0.00013614,-0.03366498,-0.01591414,-0.03086177,0.0010
 1637,-0.00545336,-0.00019378,0.03454469,-0.01267016,-0.03305292,-0.000
 07731,-0.00018367,-0.00030510,0.00000093,-0.00038931,0.00014409,0.0009
 7838,0.00284305,0.00299655,0.00064498,-0.00032297,0.00065717,0.0007302
 7,0.00212390,0.00114952,0.00112787,-0.00063952,-0.00027907,-0.00002654
 ,-0.00076937,0.00038820,0.00190738,0.00286633,0.00484680,-0.00350570,0
 .00094948,0.00862991,0.00031017,0.02479594,0.05939986,0.,0.,0.,0.,0.,0
 .,0.,0.,0.,0.,0.,0.,0.,0.,0.,0.,0.,0.,0.,0.,0.,0.,0.,0.,0.,0.,0.,0.,0.
 ,0.,0.,0.,0.,0.,0.,0.,0.,0.,0.,0.,0.,0.,0.,0.,0.,0.,0.,0.,0.,0.,0.,0.,
 0.,0.,0.,0.,0.,0.,0.,0.,0.,0.,0.,0.,0.,0.,0.,0.,0.,0.,0.,0.,0.,0.,0.,0
 .,0.,0.,0.,0.,0.,0.,0.,0.,0.00015501,-0.00017170,-0.00033844,0.0000969
 7,-0.00004540,0.00005008,0.00120017,0.00013972,-0.00072728,-0.00093716
 ,0.00159080,-0.00028705,0.00022187,0.00004522,-0.00001497,0.00008986,0
 .00009669,-0.00018315,-0.00058703,0.00015184,-0.00061531,0.00007141,0.
 00032317,-0.00032674,-0.00361058,-0.00077947,-0.00063590,0.00150038,-0
 .00130482,0.00021945,0.00252720,-0.00084598,-0.00082761,-0.00012820,-0
 .00004972,0.00003867,-0.00019902,-0.00007881,-0.00007344,0.00000275,-0
 .00058133,-0.00007795,0.00016253,0.00131393,0.00070563,0.00032184,-0.0
 0037652,0.00005819,-0.00054999,0.00025492,0.00094267,0.00160293,-0.001
 68457,-0.00064436,0.00335751,0.00192131,-0.00106400,-0.00312637,0.0022
 3379,0.00695765,-0.00046760,0.00315493,0.00444849,-0.00053988,-0.00242
 015,0.00052451,0.00016118,0.00482380,0.00079505,0.00009458,-0.00001675
 ,0.00023671,-0.00009445,0.00059714,0.00008844,-0.00183913,-0.00067858,
 -0.00082484,0.00010036,0.00162066,-0.00117881,-0.00088604,-0.00255981,
 -0.00085721,0.00050333,0.00100858,0.00200807,-0.00877989,0.00901677,-0
 .01679743,-0.00862470,-0.00663447,-0.00201210,0.00880598,-0.00815256,-
 0.01069301,0.00218327,0.00597791,0.00067776,0.00563826,0.,0.,0.,0.,0.,
 0.,0.,0.,0.,0.,0.,0.,0.,0.,0.,0.,0.,0.,0.,0.,0.,0.,0.,0.,0.,0.,0.,0.,0
 .,0.,0.,0.,0.,0.,0.,0.,0.,0.,0.,0.,0.,0.,0.,0.,0.,0.,0.,0.,0.,0.,0.,0.
 ,0.,0.,0.,0.,0.,0.,0.,0.,0.,0.,0.,0.,0.,0.,0.,0.,0.,0.,0.,0.,0.,0.,0.,
 0.,0.,0.,0.,0.,0.,0.,0.,0.,0.00006349,-0.00013947,0.00004716,-0.000024
 59,-0.00003675,0.00006927,-0.00041150,-0.00055331,-0.00011579,-0.00040
 688,0.00089260,0.00002322,0.00001533,0.00025844,-0.00005387,-0.0000242
 3,-0.00001552,-0.00002279,-0.00017572,0.00018929,0.00009718,0.00035708
 ,0.00029505,0.00027235,0.00011023,-0.00015686,0.00027885,0.00081460,-0
 .00124677,0.00037497,-0.00033364,-0.00091693,-0.00005207,0.00005153,-0
 .00005534,0.00004824,0.00007368,0.00006510,-0.00001600,0.00018680,-0.0
 0029978,-0.00009654,0.00011298,-0.00006484,-0.00005086,-0.00018686,-0.
 00025107,-0.00042481,-0.00026357,-0.00002670,-0.00002406,-0.00073448,-
 0.00128787,0.00050868,0.00035407,-0.00107284,-0.00006425,-0.00068276,0
 .00134580,0.00505025,-0.00249289,-0.00002760,-0.00230690,0.00054168,0.
 00078629,0.00048875,0.00036135,-0.00027182,-0.00019365,-0.00002006,-0.
 00003214,-0.00002566,0.00000349,0.00003326,0.00004144,0.00054907,-0.00
 001214,0.00102413,-0.00013400,0.00035709,-0.00059295,0.00032922,0.0004
 7682,-0.00065636,-0.00023101,0.00011162,0.00085544,0.00597621,-0.00516
 730,0.01774449,-0.00327325,-0.00835400,-0.01387088,0.00402786,-0.00549
 406,-0.00760049,0.00099198,0.00119315,0.00226448,-0.00710186,0.0195998
 5,0.,0.,0.,0.,0.,0.,0.,0.,0.,0.,0.,0.,0.,0.,0.,0.,0.,0.,0.,0.,0.,0.,0.
 ,0.,0.,0.,0.,0.,0.,0.,0.,0.,0.,0.,0.,0.,0.,0.,0.,0.,0.,0.,0.,0.,0.,0.,
 0.,0.,0.,0.,0.,0.,0.,0.,0.,0.,0.,0.,0.,0.,0.,0.,0.,0.,0.,0.,0.,0.,0.,0
 .,0.,0.,0.,0.,0.,0.,0.,0.,0.,0.,0.,0.,0.,0.,0.00003166,-0.00001313,-0.
 00016010,0.00003141,-0.00004113,0.00002270,0.00000191,0.00004996,-0.00
 025188,0.00083584,-0.00025856,0.00020653,-0.00061427,0.00011161,-0.000
 14179,0.00004077,0.00006151,-0.00006961,-0.00020106,-0.00004346,-0.000
 27033,0.00005447,0.00017769,-0.00047085,-0.00076245,-0.00016431,0.0000
 6386,0.00101426,0.00059817,-0.00078449,-0.00078205,-0.00030970,0.00030
 385,-0.00007309,0.00000333,-0.00002929,-0.00010947,-0.00007186,-0.0000
 3096,-0.00025456,-0.00013023,0.00008741,0.00004928,0.00049240,0.000240
 49,0.00055133,-0.00020108,-0.00004010,-0.00041308,0.00015800,0.0003449
 4,-0.00012553,-0.00108697,0.00013332,-0.00005246,0.00289729,0.00093431
 ,-0.00026733,-0.00078264,-0.00794913,-0.00202937,0.00146840,-0.0033406
 1,0.00121824,0.00025550,0.00083462,-0.00058345,-0.00093057,0.00005896,
 0.00003431,0.00004989,0.00018524,0.00001110,0.00021318,-0.00004893,-0.
 00071197,-0.00038747,-0.00024394,-0.00004276,0.00031458,-0.00030644,-0
 .00045694,-0.00114793,-0.00004621,-0.00051647,0.00051838,0.00161641,-0
 .01784093,0.02002769,-0.04719296,-0.00404496,-0.01624245,-0.02338534,-
 0.00305891,-0.00272724,-0.00277816,0.00367310,-0.00011640,-0.00309044,
 0.02285779,-0.00319728,0.08722778,0.,0.,0.,0.,0.,0.,0.,0.,0.,0.,0.,0.,
 0.,0.,0.,0.,0.,0.,0.,0.,0.,0.,0.,0.,0.,0.,0.,0.,0.,0.,0.,0.,0.,0.,0.,0
 .,0.,0.,0.,0.,0.,0.,0.,0.,0.,0.,0.,0.,0.,0.,0.,0.,0.,0.,0.,0.,0.,0.,0.
 ,0.,0.,0.,0.,0.,0.,0.,0.,0.,0.,0.,0.,0.,0.,0.,0.,0.,0.,0.,0.,0.,0.,0.,
 0.,0.,-0.00023920,0.00065302,0.00065451,0.00019763,0.00015674,-0.00014
 876,-0.00118879,0.00040113,0.00041810,0.00032857,-0.00071738,0.0002711
 0,-0.00011281,-0.00012505,-0.00024231,-0.00020244,-0.00001192,0.000235
 32,0.00163060,-0.00118928,0.00102180,-0.00005985,0.00036166,0.00011759
 ,-0.00084575,-0.00032065,0.00054482,0.00043987,0.00084830,-0.00035373,
 -0.00071521,0.00063475,0.00001481,0.00018810,0.00002401,-0.00011534,0.
 00019482,0.00007133,0.00007123,-0.00197773,0.00155909,0.00130024,-0.00
 003246,-0.00127954,-0.00102543,0.00210590,0.00148759,-0.00310931,-0.00
 241274,0.00195474,-0.00317573,-0.00235497,0.00322464,-0.00013427,-0.00
 015551,-0.00194302,0.00150842,-0.00071182,-0.00059889,-0.00053156,-0.0
 0080715,-0.00070940,0.00039770,0.00011572,0.00033349,-0.00011712,0.000
 83992,-0.00108336,0.00034813,-0.00031032,0.00026257,-0.00009639,0.0000
 9676,-0.00074826,-0.00017815,0.00522346,-0.00139467,-0.00053970,-0.007
 18313,-0.00480958,-0.00683954,-0.00121615,0.00038249,-0.00184206,-0.01
 442853,0.00762828,0.02292996,0.00053031,0.00014337,-0.00242824,-0.0001
 6578,-0.00043884,-0.00082897,-0.00048104,0.00193576,0.00194795,-0.0008
 8385,0.00031331,-0.00128413,0.00290081,-0.00042952,0.00075587,0.019837
 20,0.,0.,0.,0.,0.,0.,0.,0.,0.,0.,0.,0.,0.,0.,0.,0.,0.,0.,0.,0.,0.,0.,0
 .,0.,0.,0.,0.,0.,0.,0.,0.,0.,0.,0.,0.,0.,0.,0.,0.,0.,0.,0.,0.,0.,0.,0.
 ,0.,0.,0.,0.,0.,0.,0.,0.,0.,0.,0.,0.,0.,0.,0.,0.,0.,0.,0.,0.,0.,0.,0.,
 0.,0.,0.,0.,0.,0.,0.,0.,0.,0.,0.,0.,0.,0.,0.,0.00017834,-0.00020782,-0
 .00031496,0.00000713,0.00045711,-0.00001783,-0.00001352,0.00046007,0.0
 0000499,0.00013992,-0.00019752,0.00015167,0.00001058,-0.00003506,-0.00
 001123,0.00005851,0.00012610,-0.00008555,-0.00047875,-0.00017551,-0.00
 044202,0.00044251,-0.00088987,-0.00037032,-0.00021412,-0.00052341,0.00
 002526,0.00008930,0.00019632,-0.00016160,0.00008355,-0.00001825,0.0000
 2382,-0.00010404,-0.00012296,-0.00001419,-0.00012529,-0.00006442,-0.00
 001240,0.00033939,-0.00099749,0.00017354,0.00107434,-0.00031469,0.0000
 4396,-0.00223696,-0.00096236,0.00248440,0.00001777,0.00228694,-0.00435
 336,-0.00017985,0.00039189,0.00019344,-0.00106140,-0.00129770,-0.00069
 310,0.00009211,0.00001303,0.00011472,-0.00010644,-0.00001509,0.0002718
 2,-0.00002460,-0.00016467,0.00004587,0.00001864,0.00013893,-0.00002704
 ,-0.00004039,-0.00002976,0.00035437,-0.00003991,0.00043116,-0.00009077
 ,0.00017615,0.00118248,0.00060775,0.00056960,-0.00481832,0.00128169,0.
 00222125,-0.00454539,0.00376740,0.00427819,-0.00233914,-0.00873688,-0.
 00012675,-0.00006543,-0.00030086,0.00028540,0.00035339,0.00041627,-0.0
 0003396,-0.00020791,-0.00015927,0.00029326,0.00018041,-0.00008697,-0.0
 0046641,-0.00031148,-0.00016138,-0.00580996,0.01222478,0.,0.,0.,0.,0.,
 0.,0.,0.,0.,0.,0.,0.,0.,0.,0.,0.,0.,0.,0.,0.,0.,0.,0.,0.,0.,0.,0.,0.,0
 .,0.,0.,0.,0.,0.,0.,0.,0.,0.,0.,0.,0.,0.,0.,0.,0.,0.,0.,0.,0.,0.,0.,0.
 ,0.,0.,0.,0.,0.,0.,0.,0.,0.,0.,0.,0.,0.,0.,0.,0.,0.,0.,0.,0.,0.,0.,0.,
 0.,0.,0.,0.,0.,0.,0.,0.,0.,-0.00040349,-0.00020250,0.00021030,0.001110
 11,-0.00028021,-0.00010351,-0.00085728,0.00031090,0.00031806,0.0000908
 7,0.00004431,0.00013818,0.00014470,-0.00003110,0.00010424,0.00007903,-
 0.00010464,-0.00018170,0.00059492,-0.00008009,0.00028748,-0.00111361,-
 0.00002004,-0.00097045,-0.00003757,-0.00000883,0.00043510,-0.00021397,
 -0.00009412,-0.00020279,-0.00001755,-0.00000567,-0.00004778,-0.0001397
 7,0.00003654,0.00017562,-0.00013723,0.00002463,-0.00012079,0.00019989,
 -0.00000981,0.00000277,-0.00106078,0.00012038,0.00014393,0.00194511,-0
 .00216133,-0.00402949,-0.00033415,0.00301150,-0.01102057,0.00265347,-0
 .00231045,0.00042590,0.00066421,0.00031295,-0.00081099,0.00037445,0.00
 022909,0.00014300,0.00042587,-0.00022421,-0.00005315,0.00006383,0.0000
 1610,0.00001877,-0.00004501,-0.00006280,-0.00003169,-0.00001817,-0.000
 14635,-0.00055985,-0.00037132,0.00009971,0.00064145,-0.00176336,0.0017
 9886,-0.00323238,-0.00665921,-0.00115192,-0.01466498,-0.00248771,0.005
 75814,-0.01005435,0.01886146,-0.01037930,-0.03836678,-0.00028003,0.000
 31503,0.00062865,-0.00002285,-0.00007283,0.00048680,-0.00002048,0.0001
 6393,-0.00006652,0.00003862,-0.00023149,-0.00015601,-0.00014250,0.0001
 9376,-0.00048329,-0.01049380,0.00569329,0.08114999\\0.,0.,0.,0.,0.,0.,
 0.,0.,0.,0.,0.,0.,0.,0.,0.,0.,0.,0.,0.,0.,0.,0.,0.,0.,0.,0.,0.,0.,0.,0
 .,0.,0.,0.,0.,0.,0.,0.,0.,0.,0.,0.,0.,0.,0.,0.,0.,0.,0.,0.,0.,0.,0.,0.
 ,0.,0.,0.,0.,0.,0.,0.,0.,0.,0.,0.,0.,0.,0.,0.,0.,0.,0.,0.,0.,0.,0.,0.,
 0.,0.,0.,0.,0.,0.,0.,0.,-0.00008089,-0.00000782,-0.00076839,0.00002997
 ,-0.00002215,-0.00081641,-0.00007694,0.00004272,-0.00079739,0.00004039
 ,-0.00002908,-0.00078402,-0.00005057,-0.00001507,-0.00080303,-0.000125
 11,0.00011702,0.00114777,-0.00000374,0.00017255,0.00067313,-0.00001814
 ,-0.00014850,0.00118688,0.00001564,-0.00000153,0.00064913,0.00000195,0
 .00010080,0.00107385,0.00004709,-0.00012564,0.00101203,-0.00000241,-0.
 00033284,-0.00096898,-0.00007673,0.00015791,-0.00090318,0.00012321,-0.
 00013924,-0.00094468,-0.00015904,0.00010322,-0.00085796,0.00002905,-0.
 00010529,-0.00080138,-0.00004735,0.00014764,-0.00066058,0.00010746,-0.
 00019778,-0.00090681,-0.00014726,0.00021057,-0.00091201,0.00004551,-0.
 00019920,-0.00076128,-0.00007883,0.00014061,-0.00080726,0.00014716,-0.
 00020006,-0.00091027,-0.00003722,0.00013376,-0.00091381,-0.00001324,-0
 .00062455,-0.00054216,0.00001361,0.00075588,-0.00052979,0.00011626,-0.
 00077835,-0.00050229,0.00031910,0.00073048,-0.00054424,-0.00012059,-0.
 00091199,-0.00049717,-0.00039337,0.00108588,-0.00019365,0.00034531,-0.
 00104300,-0.00005674,0.00020023,0.00094563,-0.00036744,-0.00025455,-0.
 00059718,-0.00046177,-0.00008905,0.00067428,-0.00055575,-0.00012501,0.
 00005737,-0.00125845,0.00007572,-0.00007429,-0.00105805\\\@


 WORK FAITHFULLY FOR EIGHT HOURS A DAY AND DON'T WORRY.
 IN TIME YOU MAY BECOME BOSS AND WORK TWELVE HOURS A DAY
 AND HAVE ALL THE WORRY.
 Job cpu time:       0 days 17 hours 38 minutes 53.5 seconds.
 Elapsed time:       0 days  1 hours 28 minutes 55.0 seconds.
 File lengths (MBytes):  RWF=   2801 Int=      0 D2E=      0 Chk=     42 Scr=      1
 Normal termination of Gaussian 16 at Tue Feb 22 16:10:31 2022.
